# total energy =            -8.2503244532 ev
 
 ATOMS
 O       3.81936481648980       9.999999747378752E-006   4.50753876161060       0.0000000E+00  0.0000000E+00  0.0000000E+00
 O       2.76862710704234        5.00172679715140        1.50096397353733       0.0000000E+00  0.0000000E+00  0.0000000E+00
 O       5.49569063099853        6.66492280281310        6.07453782457335       0.0000000E+00  0.0000000E+00  0.0000000E+00
 O       9.68885289799475        2.01522407372260        4.22236477459106       0.0000000E+00  0.0000000E+00  0.0000000E+00
 O       8.67282962660474        6.03469755768336        3.09423428223070       0.0000000E+00  0.0000000E+00  0.0000000E+00
 O       5.29891499385535        5.06404534617199       0.528563094706946       0.0000000E+00  0.0000000E+00  0.0000000E+00
 O       2.89610094336569        3.50376479444072        3.83584556352727       0.0000000E+00  0.0000000E+00  0.0000000E+00
 O       8.00049720913415        5.56187522065071        5.70537055672528       0.0000000E+00  0.0000000E+00  0.0000000E+00
 O       3.87724839112742        7.12385415464691        8.22396174024612       0.0000000E+00  0.0000000E+00  0.0000000E+00
 O       7.56215078382923        2.80819977654709        5.80570743669319       0.0000000E+00  0.0000000E+00  0.0000000E+00
 O       9.09662670876303        3.54241120317028        2.03629959483805       0.0000000E+00  0.0000000E+00  0.0000000E+00
 O      9.999999747378752E-006  0.658509503041669        5.92040109688913       0.0000000E+00  0.0000000E+00  0.0000000E+00
 O       1.97343815397251        5.21471409709633        7.81200761105797       0.0000000E+00  0.0000000E+00  0.0000000E+00
 O       1.24213653675619        5.33494650253559        5.19760881129991       0.0000000E+00  0.0000000E+00  0.0000000E+00
 O       3.37518507245503        2.85921146089304        8.01518943541121       0.0000000E+00  0.0000000E+00  0.0000000E+00
 O       6.48050686883573        7.12388032411265        1.88672543331451       0.0000000E+00  0.0000000E+00  0.0000000E+00
 O      0.888580220541278        3.68978229788671       9.999999747378752E-006  0.0000000E+00  0.0000000E+00  0.0000000E+00
 O       2.55176797274311       0.463801744349131        6.95630182458816       0.0000000E+00  0.0000000E+00  0.0000000E+00
 O       1.43001834216790        1.12291443016371        3.60455353720674       0.0000000E+00  0.0000000E+00  0.0000000E+00
 O       2.17878224867971        7.08441890615827        3.22221332928630       0.0000000E+00  0.0000000E+00  0.0000000E+00
 O      0.214527541963271        1.32151589526701        1.18492080717080       0.0000000E+00  0.0000000E+00  0.0000000E+00
 O       6.53610388769644        2.82293061303941        1.42080572264492       0.0000000E+00  0.0000000E+00  0.0000000E+00
 O       5.49989709135007        2.07454485708733        3.83400004049126       0.0000000E+00  0.0000000E+00  0.0000000E+00
 O       4.86312759156153        3.93769624908993        5.95848699128195       0.0000000E+00  0.0000000E+00  0.0000000E+00
 O       4.70303517012487        7.93129053418576        3.80719905695369       0.0000000E+00  0.0000000E+00  0.0000000E+00
