ITEM: TIMESTEP
 0
ITEM: NUMBER OF ATOMS 
          20
ITEM: BOX BOUNDS pp pp pp
  0.000000000000000E+000  0.000000000000000E+000
  0.000000000000000E+000  0.000000000000000E+000
  0.000000000000000E+000  0.000000000000000E+000
ITEM: ATOMS id type x y z  
           1           1   6.12679569907985       -6.06908646128293      -0.660338178300201     
           2           1   5.30581212921795      -0.908632836236259       -3.23965288903396     
           3           1   8.29825907789554       0.299396949113384        1.26825719867749     
           4           1   12.1355148109762       -4.18892690993290       -1.19009439498737     
           5           1   11.1915919997144      -0.294200546168398       -1.94493021823152     
           6           1   7.80688074694866      -0.853447300130665       -4.40380483259414     
           7           1   5.41515418742236       -2.61267535641419       -1.11860078596315     
           8           1   10.8033787183154      -0.825086922298421       0.749889476755891     
           9           1   6.66804330927256       0.898149387216026        3.36628669994994     
          10           1   10.0364523935730       -3.50372065941344       0.525956000000875     
          11           1   11.4926330497039       -2.60151304772619       -3.36854899251773     
          12           1   2.53937810314121       -5.68584581180011       0.815729243224143     
          13           1   4.61465117070527      -0.756455160820944        2.98371726413409     
          14           1   4.03566545355596      -0.672881095419051       0.286026370964541     
          15           1   5.87276783531948       -3.23102802685122        3.06198819980311     
          16           1   9.03049235934231        1.02331529798988       -2.91229343490134     
          17           1   3.38978943917905       -2.15883093684545       -4.72189984661758     
          18           1   5.01835876642125       -5.52498748404015        1.91284023551503     
          19           1   3.76994445010495       -4.85449877295786       -1.52552373833844     
          20           1   4.94596207953151        1.21585899108973       -1.46480340072629     
ITEM: TIMESTEP
 0
ITEM: NUMBER OF ATOMS 
          20
ITEM: BOX BOUNDS pp pp pp
  0.000000000000000E+000  0.000000000000000E+000
  0.000000000000000E+000  0.000000000000000E+000
  0.000000000000000E+000  0.000000000000000E+000
ITEM: ATOMS id type x y z  
           1           1   6.18661680539546       -6.28547145700029       0.176630899624797     
           2           1   5.07140357305896      -0.653247866688962       -3.61521090703677     
           3           1   8.85304159497113        1.30291281783718        1.51842600740580     
           4           1   11.2502680595180       -4.48624109323186       -1.21159687304606     
           5           1   11.3390920204408      -0.174837623546207       -2.04574930992685     
           6           1   7.54798214423008      -0.435447448136419       -4.69966365979328     
           7           1   4.87709519818892       -2.56487844263711       -1.63720667501645     
           8           1   10.6462746622426      -0.489789176709617       0.543563595058802     
           9           1   7.10196024279769       0.548682489956010        3.41747404507135     
          10           1   10.4054749512769       -3.19127778831341       0.982682546515473     
          11           1   12.1856897161998       -2.59121101695956       -2.92376308827491     
          12           1   2.44061272213529       -5.45878833298316       0.637492220123068     
          13           1   5.13646544827572       -1.20188695902148        2.73997668823878     
          14           1   3.93040673495678      -0.932895409641756       0.361705009612201     
          15           1   5.19948056814771       -3.67324127668425        3.91090625616165     
          16           1   9.40920068992881        1.09026921176345       -3.46632363484173     
          17           1   3.00608356932534      -0.747197877041036       -5.36488616068531     
          18           1   4.58275198029733       -5.84639161586886        2.39954492482946     
          19           1   4.23912095477993       -5.19873779444494       -1.47274946539623     
          20           1   4.52445715894063        1.04689591197850       -1.49671670180006     
ITEM: TIMESTEP
 0
ITEM: NUMBER OF ATOMS 
          20
ITEM: BOX BOUNDS pp pp pp
  0.000000000000000E+000  0.000000000000000E+000
  0.000000000000000E+000  0.000000000000000E+000
  0.000000000000000E+000  0.000000000000000E+000
ITEM: ATOMS id type x y z  
           1           1   6.34695252167396       -6.25886157085702       0.318989142790041     
           2           1   5.09839241916336      -0.629512957017350       -3.68416207032984     
           3           1   8.82267249726514        1.38848279013746        1.56458793661242     
           4           1   11.2761404464514       -4.48765530967506      -0.806948974482742     
           5           1   11.3356381421643      -0.198353867923084       -2.01568072401792     
           6           1   7.60845599366471      -0.478739211343589       -4.68929842846855     
           7           1   4.68199484288665       -2.60274448292463       -1.76591941954713     
           8           1   10.7294189832497      -0.329994979597337       0.628792960717352     
           9           1   7.12777712395756       0.455175938434208        3.44395680574503     
          10           1   10.5537450899448       -2.93872173672743        1.32220547441993     
          11           1   11.8568298465461       -2.75072469698587       -2.82889382834171     
          12           1   2.57390872284266       -5.71784862357026       0.561532605736324     
          13           1   5.23647425078151       -1.32484163569369        2.69505323524228     
          14           1   3.95529433766661      -0.990307231875838       0.336554436589714     
          15           1   5.05068026873696       -3.73517293705021        3.95003363876178     
          16           1   9.49920404946377        1.06598864962843       -3.53870663805614     
          17           1   3.12176822306659      -0.348501389936719       -5.52764277637538     
          18           1   4.58678656773319       -5.94180072567587        2.44105360779886     
          19           1   4.46533334857867       -5.29121891522945       -1.45570308353320     
          20           1   4.63740991017517       0.975730366716748       -1.47820351446516     
ITEM: TIMESTEP
 0
ITEM: NUMBER OF ATOMS 
          20
ITEM: BOX BOUNDS pp pp pp
  0.000000000000000E+000  0.000000000000000E+000
  0.000000000000000E+000  0.000000000000000E+000
  0.000000000000000E+000  0.000000000000000E+000
ITEM: ATOMS id type x y z  
           1           1   6.47388340077550       -6.07742735381344       0.111787423785757     
           2           1   5.13542229967599      -0.508428848464849       -3.60756128565567     
           3           1   8.85734837088057        1.36461666861061        1.65815298057569     
           4           1   11.6132424449185       -4.39976933002811      -0.539308084499274     
           5           1   11.4012961074404      -0.201311830268401       -1.98489077223806     
           6           1   7.65963337143323      -0.773229097710765       -4.60881158134525     
           7           1   4.22471392465736       -2.43645731219942       -1.83568648562736     
           8           1   10.8635884949022      -0.188914473947192       0.683758426108301     
           9           1   7.18154073857786       0.296486907198786        3.50162778288532     
          10           1   10.8616600168683       -2.80716687215444        1.51061844837493     
          11           1   12.0842032424017       -2.74407509114975       -2.64524988897433     
          12           1   2.69269953906360       -6.03367105507308       0.473394760586789     
          13           1   5.32869037147384       -1.44922988515260        2.59869626127993     
          14           1   3.89604705587021      -0.856210996662038       0.381510265073110     
          15           1   5.00359951780719       -3.82293823720774        3.83140719710642     
          16           1   9.58007852878993       0.900722985532656       -3.69226635017311     
          17           1   3.30708342301549       3.046744607766980E-002  -5.54172192444210     
          18           1   4.77252247603812       -6.04477305108829        2.29058543462905     
          19           1   4.44198517401099       -5.12370006719152       -1.50195383855203     
          20           1   4.85094677016509        1.07398643623484       -1.36013353762603     
ITEM: TIMESTEP
 0
ITEM: NUMBER OF ATOMS 
          20
ITEM: BOX BOUNDS pp pp pp
  0.000000000000000E+000  0.000000000000000E+000
  0.000000000000000E+000  0.000000000000000E+000
  0.000000000000000E+000  0.000000000000000E+000
ITEM: ATOMS id type x y z  
           1           1   6.61571200944387       -5.47256862694503       5.584130989526215E-002
           2           1   4.95963871618124      -0.434909077443781       -3.67105558623551     
           3           1   8.92747441189845        1.33737955391167        1.49969560683272     
           4           1   11.8022611686106       -4.47899884043704      -0.421841510681986     
           5           1   11.3926564130595      -0.376363436988965       -2.05988695445972     
           6           1   7.48048666801235      -0.929257371316443       -4.54933807101416     
           7           1   3.92576745485931       -2.30020476235570       -1.87849485388745     
           8           1   10.8764725742894      -0.341628609553993       0.586959718368693     
           9           1   7.19592285927697       0.357175299421223        3.36460475433266     
          10           1   11.0113125021119       -2.87123282739206        1.61424665147232     
          11           1   12.2032904721490       -2.91485140332100       -2.59058404072261     
          12           1   2.84070367270554       -6.07166720955640       0.303310730316220     
          13           1   5.25415741340367       -1.34616601045033        2.54556962701700     
          14           1   3.84921783699851      -0.633824080391153       0.296999642695618     
          15           1   4.83958111851174       -3.73005963438383        3.75311193803910     
          16           1   9.49949839732540       0.671521219055024       -3.71044321105726     
          17           1   3.24090233692473       0.242862996940797       -5.65552340731044     
          18           1   4.90985075229412       -5.91923024720815        2.17652084140092     
          19           1   4.48249010448895       -4.93944547124223       -1.61258773076268     
          20           1   4.93449350403568        1.24223251956630       -1.43613664912560     
ITEM: TIMESTEP
 0
ITEM: NUMBER OF ATOMS 
          20
ITEM: BOX BOUNDS pp pp pp
  0.000000000000000E+000  0.000000000000000E+000
  0.000000000000000E+000  0.000000000000000E+000
  0.000000000000000E+000  0.000000000000000E+000
ITEM: ATOMS id type x y z  
           1           1   6.73196856674315       -5.38114562076487      -0.259148726392786     
           2           1   5.00594735727823      -0.506623782831605       -3.65343380630070     
           3           1   8.88250195195385        1.28664416138372        1.54342001132822     
           4           1   11.9212907771180       -4.43777918698036      -0.313085762259491     
           5           1   11.4395931146957      -0.405788871279999       -1.98322295982557     
           6           1   7.53015669917935       -1.06715446539346       -4.43280460892901     
           7           1   3.77237243416298       -2.28880349688687       -1.91361713992532     
           8           1   10.8892207016262      -0.332819005968494       0.700863495453552     
           9           1   7.13488576581719       0.272357852738394        3.35695751860424     
          10           1   11.0056796512797       -2.86538002130913        1.71433397190353     
          11           1   12.3040509544379       -2.91957275006129       -2.52772557086327     
          12           1   3.02088824241446       -6.23970674529132       0.230191734606967     
          13           1   5.13217602060540       -1.34894389986751        2.55576457696720     
          14           1   3.73352520479305      -0.650920024598341       0.328646667994056     
          15           1   4.92900108665167       -3.81900173263226        3.63613893326181     
          16           1   9.54477567443738       0.589662192237374       -3.66216999967573     
          17           1   3.43554065313273       0.151714357068879       -5.78782798848394     
          18           1   5.18020511508507       -5.95796265120082        1.94895353624474     
          19           1   4.46736530858876       -4.90462907350217       -1.74275855415062     
          20           1   4.84476664731188        1.18985997588848       -1.46151050445148     
ITEM: TIMESTEP
 0
ITEM: NUMBER OF ATOMS 
          20
ITEM: BOX BOUNDS pp pp pp
  0.000000000000000E+000  0.000000000000000E+000
  0.000000000000000E+000  0.000000000000000E+000
  0.000000000000000E+000  0.000000000000000E+000
ITEM: ATOMS id type x y z  
           1           1   6.90501638440250       -5.21676775529266      -0.214113827120616     
           2           1   4.83205967971375      -0.637278191286445       -3.56954266264264     
           3           1   8.71829952416531        1.20882833040607        1.52997554196947     
           4           1   11.8638760575169       -4.43894488864136      -0.274536667129350     
           5           1   11.2314413057537      -0.361973134169427       -1.99168368923425     
           6           1   7.36226261856126       -1.30416373667817       -4.27257890634283     
           7           1   3.57507820537030       -2.43743787788152       -1.86867260202788     
           8           1   10.7193497192847      -0.333072787685909       0.650276757538806     
           9           1   7.06220023369052       0.140914438727087        3.37891304170168     
          10           1   11.0497593859724       -2.81420198704701        1.73851348216008     
          11           1   12.2577084257957       -2.83010589547464       -2.43632078732098     
          12           1   3.23910977016691       -6.58090711566898       0.177932200193629     
          13           1   4.95218468664579       -1.39887739010417        2.58523454350001     
          14           1   3.61626163232622      -0.779700353861507       0.324036942502657     
          15           1   4.79220999894303       -3.91331886592587        3.58992833288825     
          16           1   9.34003479930550       0.459528022008308       -3.72003596760105     
          17           1   3.26420701994058       0.277065980678427       -5.57624320643965     
          18           1   5.30314963436367       -5.99710502783498        1.92052914519269     
          19           1   4.55668875358516       -4.98327637330043       -1.66012321627232     
          20           1   4.75644371204185        1.04400661758897       -1.37452552813262     
ITEM: TIMESTEP
 0
ITEM: NUMBER OF ATOMS 
          20
ITEM: BOX BOUNDS pp pp pp
  0.000000000000000E+000  0.000000000000000E+000
  0.000000000000000E+000  0.000000000000000E+000
  0.000000000000000E+000  0.000000000000000E+000
ITEM: ATOMS id type x y z  
           1           1   6.90192143160588       -5.06253321143531      -0.185601648670582     
           2           1   4.82094300273957      -0.690170319248877       -3.62302482218774     
           3           1   8.69179008353900        1.28219928432318        1.40750661762719     
           4           1   12.1511081706110       -4.34166992887106      -0.126399568251686     
           5           1   11.2997168488036      -0.456989695116958       -2.03252339331631     
           6           1   7.33833311571560       -1.41229283699369       -4.27231860747072     
           7           1   3.52204339781780       -2.47425315011140       -1.90933066211138     
           8           1   10.7597415857532      -0.251605101135950       0.625487093516924     
           9           1   6.96331864771890       0.330096943435921        3.28131652016689     
          10           1   11.1678294399707       -2.67860516083833        1.78301500698044     
          11           1   12.3179265347993       -2.91894271472696       -2.48390000854072     
          12           1   3.38470849509324       -6.53029405126846       0.303410384001661     
          13           1   5.00614512807364       -1.35960643812814        2.50846275592466     
          14           1   3.56893625995681      -0.772196182262861       0.287363767011365     
          15           1   4.91748932049494       -3.82045491656309        3.66997969410922     
          16           1   9.35197058304974       0.317502191287479       -3.76883565325535     
          17           1   3.30371629845718      -1.852436446646531E-002  -5.78300726776249     
          18           1   5.48521563213053       -5.91729737013488        2.02390274386554     
          19           1   4.54464532787284       -4.95240112989810       -1.68421436146480     
          20           1   4.61984874434444        1.06495380217668       -1.50538751065045     
ITEM: TIMESTEP
 0
ITEM: NUMBER OF ATOMS 
          20
ITEM: BOX BOUNDS pp pp pp
  0.000000000000000E+000  0.000000000000000E+000
  0.000000000000000E+000  0.000000000000000E+000
  0.000000000000000E+000  0.000000000000000E+000
ITEM: ATOMS id type x y z  
           1           1   6.93437007149843       -5.11129830380821      -0.187967803853400     
           2           1   4.68209270650364      -0.833036718012450       -3.69376430302072     
           3           1   8.58098537406140        1.26924970215392        1.45141577027826     
           4           1   12.2419650711614       -4.20071837437712      -0.127443788862960     
           5           1   11.0744090899150      -0.472909924449869       -2.09861146267962     
           6           1   7.18974442998954       -1.40886641690547       -4.42260750687246     
           7           1   3.51305004565341       -2.64521476083577       -1.94737254783344     
           8           1   10.6100350612027      -0.286423304572397       0.578691924104566     
           9           1   6.86218517590315       0.305759292484649        3.29534991398991     
          10           1   11.2996417990194       -2.57683352114596        1.84587564611553     
          11           1   12.0967653448090       -2.95814461612301       -2.51717754896711     
          12           1   3.35378254607849       -6.56252030415732       0.366633550652040     
          13           1   4.92154511987432       -1.41979116861163        2.48632010742191     
          14           1   3.58754925879784      -0.886337147672125       0.185243625294042     
          15           1   4.84983432279339       -3.88461066529610        3.61235952630847     
          16           1   9.12006277063889       0.369463186203092       -3.80165702542392     
          17           1   3.01162401792605      -0.173182000360797       -5.75084697438185     
          18           1   5.47955921052797       -5.96675946350488        2.00437670582919     
          19           1   4.59523698072928       -5.13555518253161       -1.64718580754218     
          20           1   4.61842729709757       0.973541512231859       -1.57257442199812     
ITEM: TIMESTEP
 0
ITEM: NUMBER OF ATOMS 
          20
ITEM: BOX BOUNDS pp pp pp
  0.000000000000000E+000  0.000000000000000E+000
  0.000000000000000E+000  0.000000000000000E+000
  0.000000000000000E+000  0.000000000000000E+000
ITEM: ATOMS id type x y z  
           1           1   6.94343196131573       -5.09365843337469      -2.751735931181480E-002
           2           1   4.63402786515381      -0.786940124603711       -3.66306351073391     
           3           1   8.56684759248500        1.36585525282671        1.40939466699462     
           4           1   12.2137301390964       -4.16214805525906       2.176191150913456E-002
           5           1   11.0417383409712      -0.477931414912974       -2.12019925115645     
           6           1   7.16144232410917       -1.37545391226295       -4.44940945482457     
           7           1   3.58200553122234       -2.61421851818817       -1.86866613557430     
           8           1   10.6622514990919      -0.108085892046323       0.535611373486358     
           9           1   6.97793697574920       0.330674871648070        3.36225246094682     
          10           1   11.2867269591089       -2.37684487844154        1.85237969137448     
          11           1   11.9112045376092       -3.02005064756071       -2.45775048053413     
          12           1   3.31405054431096       -6.62112672947437       0.362927811582798     
          13           1   5.00596768596874       -1.37610285148671        2.53664247503503     
          14           1   3.57936062056425      -0.870990053300221       0.290620276143583     
          15           1   4.83733808504914       -3.83618529155923        3.69013718208995     
          16           1   9.14951577985007       0.375858280680501       -3.84455620075612     
          17           1   2.92507915898656      -0.284865335597956       -5.72328564852386     
          18           1   5.39700499065706       -5.95712914985018        2.09321402386296     
          19           1   4.66969477295170       -5.07783179553546       -1.54465048337088     
          20           1   4.52577534430173       0.971388542379243       -1.52571074474306     
ITEM: TIMESTEP
 0
ITEM: NUMBER OF ATOMS 
          20
ITEM: BOX BOUNDS pp pp pp
  0.000000000000000E+000  0.000000000000000E+000
  0.000000000000000E+000  0.000000000000000E+000
  0.000000000000000E+000  0.000000000000000E+000
ITEM: ATOMS id type x y z  
           1           1   6.99182343114096       -5.16109547589036      -0.123959313896392     
           2           1   4.66257939622909      -0.751875350486564       -3.59033163138071     
           3           1   8.54667310611010        1.38573438023750        1.48528211700288     
           4           1   12.3694010141980       -4.03331505310949       0.135311410122765     
           5           1   11.0257034645377      -0.403790697355655       -2.01486413289225     
           6           1   7.17728655239276       -1.36328368163806       -4.39960615808945     
           7           1   3.55492106829496       -2.59194850025845       -1.83616152654177     
           8           1   10.7165835234835       4.210908629025780E-003  0.657417351166998     
           9           1   6.95069197217137       0.297877100994436        3.39722523600069     
          10           1   11.4707096516797       -2.23275466290358        2.00979329574604     
          11           1   12.0159353461733       -2.92065179197032       -2.31877261261019     
          12           1   3.41556497526127       -6.63137967815431       0.350098405324856     
          13           1   4.92461363356891       -1.31860338970238        2.62235730925231     
          14           1   3.67978760525969      -0.818988778416774       0.270588612550184     
          15           1   4.79433126516941       -3.80643659988136        3.66769020545069     
          16           1   9.12730208528765       0.402007557450690       -3.78253769054917     
          17           1   3.04977088810869      -0.136516778104393       -5.67892542093666     
          18           1   5.45156183123884       -5.88503959952873        2.05761657627842     
          19           1   4.63645872647545       -5.04352076728018       -1.56011414740444     
          20           1   4.74310598296751        1.02053954766509       -1.46620066339888     
ITEM: TIMESTEP
 0
ITEM: NUMBER OF ATOMS 
          20
ITEM: BOX BOUNDS pp pp pp
  0.000000000000000E+000  0.000000000000000E+000
  0.000000000000000E+000  0.000000000000000E+000
  0.000000000000000E+000  0.000000000000000E+000
ITEM: ATOMS id type x y z  
           1           1   7.13354031747686       -4.95375118090397       7.131595136018933E-002
           2           1   4.60773720532633      -0.701719705202699       -3.58760463817946     
           3           1   8.37497093527500        1.43574434543475        1.39743311954580     
           4           1   12.1772612541643       -3.95188982738799       0.144988307205441     
           5           1   10.9400790940424      -0.416363518077474       -1.98539297380378     
           6           1   7.10900957191719       -1.30412075677626       -4.45855579068574     
           7           1   3.63756456005318       -2.62007336390271       -1.83075967558242     
           8           1   10.6291623389384       0.129674832374813       0.650146719910090     
           9           1   6.90904505179160       0.290198913199473        3.35563114071645     
          10           1   11.3185919737311       -2.14693809124071        1.98226968636448     
          11           1   12.0158046661494       -2.89514729293552       -2.35338908121253     
          12           1   3.60464855847780       -6.60553667713373       0.334625342968682     
          13           1   4.92306222071970       -1.42174956961178        2.65419818660764     
          14           1   3.54887099334935      -0.909679472907292       0.372999114511240     
          15           1   4.89049511292827       -3.89147179086361        3.75952831841606     
          16           1   9.06401720732415       0.430512126825319       -3.75332598407377     
          17           1   2.81936768180819       1.342523337124622E-003  -5.48790564945139     
          18           1   5.55840530978549       -5.92138383931695        2.13780005177402     
          19           1   4.87391557312372       -5.03421054996077       -1.53820896796840     
          20           1   4.55264407457878       0.953327298034582       -1.36624315890217     
ITEM: TIMESTEP
 0
ITEM: NUMBER OF ATOMS 
          20
ITEM: BOX BOUNDS pp pp pp
  0.000000000000000E+000  0.000000000000000E+000
  0.000000000000000E+000  0.000000000000000E+000
  0.000000000000000E+000  0.000000000000000E+000
ITEM: ATOMS id type x y z  
           1           1   7.17087822046341       -4.84522632139161       7.125204814029541E-002
           2           1   4.58582043480957      -0.726162660205764       -3.49305639967168     
           3           1   8.40196660426556        1.36758982663760        1.24455119448702     
           4           1   12.2125403804459       -4.05427663567217       0.177192661353930     
           5           1   11.0474379505400      -0.403608430276694       -2.10266300485725     
           6           1   7.10285051002767       -1.28648447878297       -4.40850878019673     
           7           1   3.59410233653342       -2.57725027521194       -1.73629901332567     
           8           1   10.6865623581821       0.131615479717926       0.515050667253077     
           9           1   7.00597962440570       0.324711053869972        3.29653142442718     
          10           1   11.3672116498340       -2.10826077271279        1.90590998417054     
          11           1   12.0484138207639       -2.92241151919844       -2.30934948307932     
          12           1   3.69892471856801       -6.56308407879581       0.383947854298965     
          13           1   4.98223716125122       -1.35088844431294        2.66028799840778     
          14           1   3.54562329657386      -0.820983320046858       0.409707190792595     
          15           1   4.94587577054046       -3.83928199568296        3.77957974788748     
          16           1   9.11332042488972       0.375625944742641       -3.81145440065426     
          17           1   2.81814301349247       4.967104523521849E-002  -5.39316799734496     
          18           1   5.68528559711198       -5.87160197248502        2.17549852922788     
          19           1   4.89272463376853       -4.93339899994853       -1.49544491725572     
          20           1   4.63487679794134        1.02363686552289       -1.32553779314870     
ITEM: TIMESTEP
 0
ITEM: NUMBER OF ATOMS 
          20
ITEM: BOX BOUNDS pp pp pp
  0.000000000000000E+000  0.000000000000000E+000
  0.000000000000000E+000  0.000000000000000E+000
  0.000000000000000E+000  0.000000000000000E+000
ITEM: ATOMS id type x y z  
           1           1   7.19507873056816       -4.89749486454431      -4.109654755786077E-002
           2           1   4.68655543823253      -0.605456837220741       -3.59225920658774     
           3           1   8.42838564532184        1.38723099386192        1.29654569743787     
           4           1   12.4302394461147       -3.97139043221577       0.192901696196742     
           5           1   11.0792606229107      -0.469752458614662       -2.10398142950094     
           6           1   7.15617798781049       -1.28827375530886       -4.47730386146284     
           7           1   3.66461653582728       -2.50538381540324       -1.82842870650112     
           8           1   10.6825520318704       0.103393453962520       0.531782950845525     
           9           1   6.92486034146794       0.353411909924388        3.28783081794215     
          10           1   11.4662345697104       -2.11593699349034        1.92196756238562     
          11           1   11.9957355256628       -3.03005812908656       -2.30036298856527     
          12           1   3.63723828503186       -6.52003438538021       0.295915259503209     