# total energy =            -5.5073771701 ev
 
 ATOMS
 O       3.74601408325992       9.999999747378752E-006   5.54152706030985       0.0000000E+00  0.0000000E+00  0.0000000E+00
 O       2.63080085092343        5.63223359031107        1.74968525364828       0.0000000E+00  0.0000000E+00  0.0000000E+00
 O       6.41243887283559        7.58839427483722        6.88332216809085       0.0000000E+00  0.0000000E+00  0.0000000E+00
 O       8.80966533738243        1.79924036376818        4.15329928763900       0.0000000E+00  0.0000000E+00  0.0000000E+00
 O       8.89848929830529        6.11064383345383        3.31914685075820       0.0000000E+00  0.0000000E+00  0.0000000E+00
 O       5.10737942209455        5.85003400886362       0.665232500891769       0.0000000E+00  0.0000000E+00  0.0000000E+00
 O       2.43649247605338        3.72060301436292        3.72768948566860       0.0000000E+00  0.0000000E+00  0.0000000E+00
 O       8.20567194010702        5.79569228029042        5.90845975574385       0.0000000E+00  0.0000000E+00  0.0000000E+00
 O       4.66135752066215        6.83416394695605        8.78237020575641       0.0000000E+00  0.0000000E+00  0.0000000E+00
 O       7.96487222914139        3.09420366868663        6.34757870720053       0.0000000E+00  0.0000000E+00  0.0000000E+00
 O       9.74508699406422        3.69427044004048        2.44113307241014       0.0000000E+00  0.0000000E+00  0.0000000E+00
 O      9.999999747378752E-006  0.826693124016875        6.00238838080812       0.0000000E+00  0.0000000E+00  0.0000000E+00
 O       2.69586272614018        5.08359449797856        8.10487284892383       0.0000000E+00  0.0000000E+00  0.0000000E+00
 O       1.48980401282125        5.35258604735828        5.72660117029725       0.0000000E+00  0.0000000E+00  0.0000000E+00
 O       2.75887784601217        2.61224018031578        9.27580241684670       0.0000000E+00  0.0000000E+00  0.0000000E+00
 O       6.96859796779327        7.37575066876349        1.89857252584332       0.0000000E+00  0.0000000E+00  0.0000000E+00
 O      0.565480847189800        5.53828357995900       9.999999747378752E-006  0.0000000E+00  0.0000000E+00  0.0000000E+00
 O       2.14214925816179       0.439089841131178        7.76444108551451       0.0000000E+00  0.0000000E+00  0.0000000E+00
 O       1.79851823264439        1.08674366255510        3.89214669528882       0.0000000E+00  0.0000000E+00  0.0000000E+00
 O       2.08385443680509        7.33237736897853        3.86817945888500       0.0000000E+00  0.0000000E+00  0.0000000E+00
# total energy =            -5.5147200085 ev
 
 ATOMS
 O       3.77305379883105       9.999999747378752E-006   5.84664191916517       0.0000000E+00  0.0000000E+00  0.0000000E+00
 O       2.52449369632045        5.62935861383941        1.84349070604529       0.0000000E+00  0.0000000E+00  0.0000000E+00
 O       6.24877377442223        7.64735436099422        7.09224071298755       0.0000000E+00  0.0000000E+00  0.0000000E+00
 O       8.70224172360848        1.77121626118170        4.72070380189239       0.0000000E+00  0.0000000E+00  0.0000000E+00
 O       8.76173941932135        6.06051770293368        3.51197205235721       0.0000000E+00  0.0000000E+00  0.0000000E+00
 O       5.03455727082180        5.78013235951318       0.838354347906580       0.0000000E+00  0.0000000E+00  0.0000000E+00
 O       2.10809612004375        3.65612708793214        3.76173335682800       0.0000000E+00  0.0000000E+00  0.0000000E+00
 O       8.15552026040675        5.92887659125943        6.15644573709248       0.0000000E+00  0.0000000E+00  0.0000000E+00
 O       4.55387840111465        6.71404750929097        8.97160958212016       0.0000000E+00  0.0000000E+00  0.0000000E+00
 O       7.97984636710188        3.32014983412933        6.84985825079506       0.0000000E+00  0.0000000E+00  0.0000000E+00
 O       9.28293112370319        3.50814687387089        2.69875894803342       0.0000000E+00  0.0000000E+00  0.0000000E+00
 O      9.999999747378752E-006  0.541022947286506        6.08918538211145       0.0000000E+00  0.0000000E+00  0.0000000E+00
 O       2.66257552793861        4.93402993516307        8.22270601161741       0.0000000E+00  0.0000000E+00  0.0000000E+00
 O       1.38139561482371        5.26856433898093        5.86420721296485       0.0000000E+00  0.0000000E+00  0.0000000E+00
 O       2.47678154589406        2.52369863380656        9.47768641513692       0.0000000E+00  0.0000000E+00  0.0000000E+00
 O       6.92530532662086        7.32486022048519        1.98894613831899       0.0000000E+00  0.0000000E+00  0.0000000E+00
 O      0.547869500223682        5.91037018092005       9.999999747378752E-006  0.0000000E+00  0.0000000E+00  0.0000000E+00
 O       2.01288784489028       0.317070845180899        7.96870638417399       0.0000000E+00  0.0000000E+00  0.0000000E+00
 O       1.89143462573576       0.967652655627313        4.07194969284193       0.0000000E+00  0.0000000E+00  0.0000000E+00
 O       2.06351118733227        7.23460193757351        4.04944926190997       0.0000000E+00  0.0000000E+00  0.0000000E+00
# total energy =            -5.5201739486 ev
 
 ATOMS
 O       3.78119386171165       9.999999747378752E-006   5.65351934822760       0.0000000E+00  0.0000000E+00  0.0000000E+00
 O       2.44273276061214        5.56900850534834        1.93417063878618       0.0000000E+00  0.0000000E+00  0.0000000E+00
 O       6.16465883181672        7.44205402242379        7.19988490501754       0.0000000E+00  0.0000000E+00  0.0000000E+00
 O       8.92055290585466        1.67766802378508        5.00242383994257       0.0000000E+00  0.0000000E+00  0.0000000E+00
 O       8.70860656837651        5.87612552354478        3.55684115220379       0.0000000E+00  0.0000000E+00  0.0000000E+00
 O       4.96694383236938        5.30420825610242       0.932920343096597       0.0000000E+00  0.0000000E+00  0.0000000E+00
 O       1.53202438559351        3.64098004161377        3.70604543881449       0.0000000E+00  0.0000000E+00  0.0000000E+00
 O       8.17089895583838        5.88852287986599        6.22549035055015       0.0000000E+00  0.0000000E+00  0.0000000E+00
 O       4.48885119951402        6.37392426101197        9.04335970732716       0.0000000E+00  0.0000000E+00  0.0000000E+00
 O       8.16897047780446        3.27027048165874        7.05235037281677       0.0000000E+00  0.0000000E+00  0.0000000E+00
 O       9.39151370333790        3.33336226266344        2.89648203546752       0.0000000E+00  0.0000000E+00  0.0000000E+00
 O      9.999999747378752E-006  4.376629874010174E-002   6.01512668502864       0.0000000E+00  0.0000000E+00  0.0000000E+00
 O       2.63600083240999        4.62820746866058        8.14042818572177       0.0000000E+00  0.0000000E+00  0.0000000E+00
 O       1.20335751680636        5.22122635715115        5.92324218951496       0.0000000E+00  0.0000000E+00  0.0000000E+00
 O       2.31090997874335        2.25449911660544        9.37313912154827       0.0000000E+00  0.0000000E+00  0.0000000E+00
 O       6.88738898972609        6.97816033934584        1.84946557426873       0.0000000E+00  0.0000000E+00  0.0000000E+00
 O      0.614393883951637        6.10790479989085       9.999999747378752E-006  0.0000000E+00  0.0000000E+00  0.0000000E+00
 O       2.07983293697428       3.266430272489096E-002   7.83231735907090       0.0000000E+00  0.0000000E+00  0.0000000E+00
 O       1.74929563494714       0.953737286621662        4.03977808588982       0.0000000E+00  0.0000000E+00  0.0000000E+00
 O       2.15825723110124        7.15142379004802        4.18159838681582       0.0000000E+00  0.0000000E+00  0.0000000E+00
# total energy =            -5.5296605722 ev
 
 ATOMS
 O       3.77501833673808       0.599108582611120        5.71137471720545       0.0000000E+00  0.0000000E+00  0.0000000E+00
 O       2.11894504347545        5.63676813211237        1.98447782107468       0.0000000E+00  0.0000000E+00  0.0000000E+00
 O       6.08678073919266        7.40905676346782        7.15522901414291       0.0000000E+00  0.0000000E+00  0.0000000E+00
 O       8.96156749590478        1.59267836911911        5.23369189662821       0.0000000E+00  0.0000000E+00  0.0000000E+00
 O       8.55196274035366        5.69531377256718        3.59564645285047       0.0000000E+00  0.0000000E+00  0.0000000E+00
 O       4.63979299530656        5.14241983823970        1.10619533629603       0.0000000E+00  0.0000000E+00  0.0000000E+00
 O       1.08507378215352        3.77147244720044        3.77703855342274       0.0000000E+00  0.0000000E+00  0.0000000E+00
 O       8.03577890158359        5.73004860000215        6.24249312567889       0.0000000E+00  0.0000000E+00  0.0000000E+00
 O       4.35522918657118        6.42885250897737        9.02013816164285       0.0000000E+00  0.0000000E+00  0.0000000E+00
 O       8.17061882940616        3.20044438216409        7.26978005878251       0.0000000E+00  0.0000000E+00  0.0000000E+00
 O       9.36259679944325        3.15682580623515        3.06494936658758       0.0000000E+00  0.0000000E+00  0.0000000E+00
 O      9.999999747378752E-006  9.999999747378752E-006   5.95884413762641       0.0000000E+00  0.0000000E+00  0.0000000E+00
 O       2.41346374069788        4.72551119910582        8.20110303432719       0.0000000E+00  0.0000000E+00  0.0000000E+00
 O       1.00852416429272        5.43785312916500        5.95253305000581       0.0000000E+00  0.0000000E+00  0.0000000E+00
 O       1.99888744580595        2.34161757517232        9.40864534534929       0.0000000E+00  0.0000000E+00  0.0000000E+00
 O       6.65880472461961        6.74319842861117        1.94509019625294       0.0000000E+00  0.0000000E+00  0.0000000E+00
 O      0.400208664218944        6.31454020649694       9.999999747378752E-006  0.0000000E+00  0.0000000E+00  0.0000000E+00
 O       2.06915707958833       0.152446962347997        7.83205424871112       0.0000000E+00  0.0000000E+00  0.0000000E+00
 O       1.64179643178316        1.13223173831392        4.04294567654751       0.0000000E+00  0.0000000E+00  0.0000000E+00
 O       2.09379983132989        7.31390972912244        4.21939675818459       0.0000000E+00  0.0000000E+00  0.0000000E+00
# total energy =            -5.5342064158 ev
 
 ATOMS
 O       3.71109032432844       0.858571124526196        5.52868926209090       0.0000000E+00  0.0000000E+00  0.0000000E+00
 O       1.98506911486352        5.73309296245946        2.13440418218299       0.0000000E+00  0.0000000E+00  0.0000000E+00
 O       5.86162370953914        7.52636090667478        7.33125799981191       0.0000000E+00  0.0000000E+00  0.0000000E+00
 O       8.90041253470334        1.80193755831070        5.47475222622420       0.0000000E+00  0.0000000E+00  0.0000000E+00
 O       8.41871487228100        5.83392787401106        3.80461502865812       0.0000000E+00  0.0000000E+00  0.0000000E+00
 O       4.50927845676464        5.17256227989760        1.35503337955468       0.0000000E+00  0.0000000E+00  0.0000000E+00
 O      0.751494191748264        3.95091324840419        3.87422084855837       0.0000000E+00  0.0000000E+00  0.0000000E+00
 O       7.86834245921151        5.90689773932257        6.48870148393724       0.0000000E+00  0.0000000E+00  0.0000000E+00
 O       4.11400752340247        6.51207459802946        9.14479550708793       0.0000000E+00  0.0000000E+00  0.0000000E+00
 O       7.98480140886496        3.37433672398193        7.50217196038722       0.0000000E+00  0.0000000E+00  0.0000000E+00
 O       9.28317271202316        3.32014399522977        3.26011241762042       0.0000000E+00  0.0000000E+00  0.0000000E+00
 O      9.999999747378752E-006  9.999999747378752E-006   6.01802972309066       0.0000000E+00  0.0000000E+00  0.0000000E+00
 O       2.11129777819068        4.89077284542356        8.34360256545089       0.0000000E+00  0.0000000E+00  0.0000000E+00
 O      0.712646962378333        5.58879672069272        6.11648465647775       0.0000000E+00  0.0000000E+00  0.0000000E+00
 O       1.90812284423695        2.42071501265881        9.42397692174550       0.0000000E+00  0.0000000E+00  0.0000000E+00
 O       6.52389743202267        6.82937893752844        2.12566798880796       0.0000000E+00  0.0000000E+00  0.0000000E+00
 O      0.414662410718012        6.39143110235994       9.999999747378752E-006  0.0000000E+00  0.0000000E+00  0.0000000E+00
 O       2.15932687267036       0.281754094090243        7.73679152472843       0.0000000E+00  0.0000000E+00  0.0000000E+00
 O       1.44648706617405        1.33508767178889        4.04507943433307       0.0000000E+00  0.0000000E+00  0.0000000E+00
 O       1.82388840489716        7.42957672117955        4.32632748403221       0.0000000E+00  0.0000000E+00  0.0000000E+00
# total energy =            -5.5333262553 ev
 
 ATOMS
 O       3.66591661423533        1.36414936037607        5.36213937931878       0.0000000E+00  0.0000000E+00  0.0000000E+00
 O       1.59295990954659        5.94363892438229        2.00671054379676       0.0000000E+00  0.0000000E+00  0.0000000E+00
 O       5.47919975399814        7.78974544607480        7.10622874840887       0.0000000E+00  0.0000000E+00  0.0000000E+00
 O       8.62477628734977        2.14197222702737        5.30171653931005       0.0000000E+00  0.0000000E+00  0.0000000E+00
 O       7.99234153558655        6.21894398149930        3.58456951720514       0.0000000E+00  0.0000000E+00  0.0000000E+00
 O       4.12316284839409        5.27675337899056        1.30367430009656       0.0000000E+00  0.0000000E+00  0.0000000E+00
 O      0.335978435203134        4.14347923778721        3.70758060441152       0.0000000E+00  0.0000000E+00  0.0000000E+00
 O       7.48024994911756        6.24784432798282        6.22652996397820       0.0000000E+00  0.0000000E+00  0.0000000E+00
 O       3.82310046352336        6.72183155439582        8.95516624814108       0.0000000E+00  0.0000000E+00  0.0000000E+00
 O       7.81065961580519        3.76671512862172        7.31476668859948       0.0000000E+00  0.0000000E+00  0.0000000E+00
 O       9.01860865562853        3.75081122019409        3.13993241911841       0.0000000E+00  0.0000000E+00  0.0000000E+00
 O      9.999999747378752E-006  9.999999747378752E-006   5.75418540663303       0.0000000E+00  0.0000000E+00  0.0000000E+00
 O       1.71308491647863        5.18203972556456        8.16148774993940       0.0000000E+00  0.0000000E+00  0.0000000E+00
 O      0.377161862159056        5.80121676180722        5.90029014894205       0.0000000E+00  0.0000000E+00  0.0000000E+00
 O       1.55311022877586        2.66759824974286        9.16618153932765       0.0000000E+00  0.0000000E+00  0.0000000E+00
 O       6.10093502913834        7.04044513767704        1.85621723883835       0.0000000E+00  0.0000000E+00  0.0000000E+00
 O      2.510724977341372E-002   6.85798309634716       9.999999747378752E-006  0.0000000E+00  0.0000000E+00  0.0000000E+00
 O       2.06404986419650       0.583812087833754        7.49678235163209       0.0000000E+00  0.0000000E+00  0.0000000E+00
 O       1.31758898341800        1.59764074236830        3.91612999016707       0.0000000E+00  0.0000000E+00  0.0000000E+00
 O       1.51734394187468        7.62492373325770        4.20172767830678       0.0000000E+00  0.0000000E+00  0.0000000E+00
# total energy =            -5.5353557653 ev
 
 ATOMS
 O       3.59821513314846        1.46777083983290        5.59741561909166       0.0000000E+00  0.0000000E+00  0.0000000E+00
 O       1.51723670428214        5.84013373201933        2.15999244557449       0.0000000E+00  0.0000000E+00  0.0000000E+00
 O       5.38808378508157        7.81250333559139        7.19052388538943       0.0000000E+00  0.0000000E+00  0.0000000E+00
 O       8.84740187215361        2.18863412239714        5.65661769951055       0.0000000E+00  0.0000000E+00  0.0000000E+00
 O       7.99601055034612        6.07331435615125        3.75049387444593       0.0000000E+00  0.0000000E+00  0.0000000E+00
 O       4.03462681725817        5.11801121427451        1.51069866029152       0.0000000E+00  0.0000000E+00  0.0000000E+00
 O      0.218337099360368        4.05605090115680        3.87368660565086       0.0000000E+00  0.0000000E+00  0.0000000E+00
 O       7.45603528729573        6.27869895013225        6.40850436127916       0.0000000E+00  0.0000000E+00  0.0000000E+00
 O       3.65961234926147        6.86040099470412        9.06433378792913       0.0000000E+00  0.0000000E+00  0.0000000E+00
 O       7.86412314151331        3.85169889042987        7.56603227474268       0.0000000E+00  0.0000000E+00  0.0000000E+00
 O       9.01422023634188        3.61136133654125        3.29911725922151       0.0000000E+00  0.0000000E+00  0.0000000E+00
 O      8.100219663580788E-002  9.999999747378752E-006   6.08642765176390       0.0000000E+00  0.0000000E+00  0.0000000E+00
 O       1.70243882961621        5.17069761314006        8.29148002368690       0.0000000E+00  0.0000000E+00  0.0000000E+00
 O      0.265229961499380        5.75810786900534        6.07038103477360       0.0000000E+00  0.0000000E+00  0.0000000E+00
 O       1.61378302203751        2.70984913470511        9.45299696187146       0.0000000E+00  0.0000000E+00  0.0000000E+00
 O       6.04826428459231        6.84780624255568        2.01418161450688       0.0000000E+00  0.0000000E+00  0.0000000E+00
 O      9.999999747378752E-006   6.51177968680174       9.999999747378752E-006  0.0000000E+00  0.0000000E+00  0.0000000E+00
 O       2.18150933367310       0.613006681133325        7.80692001162778       0.0000000E+00  0.0000000E+00  0.0000000E+00
 O       1.24093902941541        1.57790292137010        4.09880290629744       0.0000000E+00  0.0000000E+00  0.0000000E+00
 O       1.31614244588701        7.59525785344489        4.27762975711179       0.0000000E+00  0.0000000E+00  0.0000000E+00
# total energy =            -5.5361730868 ev
 
 ATOMS
 O       3.92275605357213        1.45123200034885        5.56288917052820       0.0000000E+00  0.0000000E+00  0.0000000E+00
 O       1.67047868857734        5.72949358614461        2.05709267136088       0.0000000E+00  0.0000000E+00  0.0000000E+00
 O       5.56937135613510        7.83178000631098        7.20227274465985       0.0000000E+00  0.0000000E+00  0.0000000E+00
 O       9.23035105323510        2.36181192977995        5.62341318551864       0.0000000E+00  0.0000000E+00  0.0000000E+00
 O       8.06279507198871        6.08962037970720        3.65224551170198       0.0000000E+00  0.0000000E+00  0.0000000E+00
 O       4.17813041206324        5.15366388725160        1.32824946750914       0.0000000E+00  0.0000000E+00  0.0000000E+00
 O      0.501436027727112        3.91731554332130        3.80348442654815       0.0000000E+00  0.0000000E+00  0.0000000E+00
 O       7.59842104327635        6.27610699958467        6.32954889848616       0.0000000E+00  0.0000000E+00  0.0000000E+00
 O       3.85057115797685        6.86828959664171        9.04620688837150       0.0000000E+00  0.0000000E+00  0.0000000E+00
 O       8.28802778109311        3.98569678301111        7.59673262049712       0.0000000E+00  0.0000000E+00  0.0000000E+00
 O       9.08515132688269        3.60438568803405        3.23367942541448       0.0000000E+00  0.0000000E+00  0.0000000E+00
 O      0.342168528152185       9.999999747378752E-006   6.11749052503364       0.0000000E+00  0.0000000E+00  0.0000000E+00
 O       1.90993110194802        5.14273913554543        8.23717708180351       0.0000000E+00  0.0000000E+00  0.0000000E+00
 O      0.575935240871539        5.67619315648494        5.93610059967564       0.0000000E+00  0.0000000E+00  0.0000000E+00
 O       1.83822030486709        2.67791963886097        9.36321650069006       0.0000000E+00  0.0000000E+00  0.0000000E+00
 O       6.10844875271259        6.93199349036016        1.94919994895767       0.0000000E+00  0.0000000E+00  0.0000000E+00
 O      9.999999747378752E-006   6.38934830379627       9.999999747378752E-006  0.0000000E+00  0.0000000E+00  0.0000000E+00
 O       2.46794519260167       0.595770840652180        7.75523368021079       0.0000000E+00  0.0000000E+00  0.0000000E+00
 O       1.58362296280298        1.42697512162546        4.10367116683942       0.0000000E+00  0.0000000E+00  0.0000000E+00
 O       1.60681327917127        7.53607181638892        4.17828255238348       0.0000000E+00  0.0000000E+00  0.0000000E+00
# total energy =            -5.5355078621 ev
 
 ATOMS
 O       4.01836280232892        1.52747829609943        5.69577828921179       0.0000000E+00  0.0000000E+00  0.0000000E+00
 O       1.70895870616700        5.83419660487041        2.06023213778969       0.0000000E+00  0.0000000E+00  0.0000000E+00
 O       5.64177843349819        7.98699198230083        7.13269031551823       0.0000000E+00  0.0000000E+00  0.0000000E+00
 O       9.28866098010961        2.45898867421506        5.74505756003274       0.0000000E+00  0.0000000E+00  0.0000000E+00
 O       8.11666918198435        6.14320531456114        3.60309639736716       0.0000000E+00  0.0000000E+00  0.0000000E+00
 O       4.23637316512235        5.24568281721117        1.27388619369903       0.0000000E+00  0.0000000E+00  0.0000000E+00
 O      0.656936372235522        4.00691821128595        3.85462951294930       0.0000000E+00  0.0000000E+00  0.0000000E+00
 O       7.73718234010511        6.51305083742780        6.25890702200996       0.0000000E+00  0.0000000E+00  0.0000000E+00
 O       4.05286781676239        6.95181160112219        9.08554810947042       0.0000000E+00  0.0000000E+00  0.0000000E+00
 O       8.36165780012210        4.24429185103258        7.57567533989808       0.0000000E+00  0.0000000E+00  0.0000000E+00
 O       8.98613537862239        3.60108608191340        3.26554516798948       0.0000000E+00  0.0000000E+00  0.0000000E+00
 O      0.388981385324147       9.999999747378752E-006   6.08622346010640       0.0000000E+00  0.0000000E+00  0.0000000E+00
 O       2.08089852698192        5.24503387798741        8.25993812355863       0.0000000E+00  0.0000000E+00  0.0000000E+00
 O      0.654291461577433        5.75014667617390        6.01391592466719       0.0000000E+00  0.0000000E+00  0.0000000E+00
 O       1.91226892606233        2.78495143791489        9.41343283061356       0.0000000E+00  0.0000000E+00  0.0000000E+00
 O       6.22444662086326        6.99699501015462        1.87873944776748       0.0000000E+00  0.0000000E+00  0.0000000E+00
 O      9.999999747378752E-006   6.33627139387616       9.999999747378752E-006  0.0000000E+00  0.0000000E+00  0.0000000E+00
 O       2.47193583167025       0.664007579623943        7.81650967238656       0.0000000E+00  0.0000000E+00  0.0000000E+00
 O       1.74462561396489        1.54330493393866        4.17864516515272       0.0000000E+00  0.0000000E+00  0.0000000E+00
 O       1.60070618531491        7.59252527185336        4.19758490378054       0.0000000E+00  0.0000000E+00  0.0000000E+00
# total energy =            -5.5373635349 ev
 
 ATOMS
 O       3.94206254303202        1.47029420226369        5.55497610704002       0.0000000E+00  0.0000000E+00  0.0000000E+00
 O       1.61281850812015        5.87951432766749        2.08860378955570       0.0000000E+00  0.0000000E+00  0.0000000E+00
 O       5.49691221800115        8.01712405839156        7.16421753793930       0.0000000E+00  0.0000000E+00  0.0000000E+00
 O       9.31964012608900        2.59807462504457        5.81424683105918       0.0000000E+00  0.0000000E+00  0.0000000E+00
 O       7.97594257642873        6.22759898079840        3.66407128804416       0.0000000E+00  0.0000000E+00  0.0000000E+00
 O       4.12752566428381        5.26810599651599        1.27932926284696       0.0000000E+00  0.0000000E+00  0.0000000E+00
 O      0.505160180186015        4.03944117789561        3.84277389439464       0.0000000E+00  0.0000000E+00  0.0000000E+00
 O       7.66682263537455        6.63560058678308        6.33635277210341       0.0000000E+00  0.0000000E+00  0.0000000E+00
 O       3.90093108406242        6.92926677914849        9.07616065693711       0.0000000E+00  0.0000000E+00  0.0000000E+00
 O       8.42094876357078        4.39863501525048        7.68872871668245       0.0000000E+00  0.0000000E+00  0.0000000E+00
 O       8.96617445806440        3.71073788618373        3.36016280832622       0.0000000E+00  0.0000000E+00  0.0000000E+00
 O      0.365804087152327       9.999999747378752E-006   6.02903382626127       0.0000000E+00  0.0000000E+00  0.0000000E+00
 O       1.87485274545996        5.31278628845168        8.30129273018872       0.0000000E+00  0.0000000E+00  0.0000000E+00
 O      0.630026717150745        5.81240089973728        5.94952403348660       0.0000000E+00  0.0000000E+00  0.0000000E+00
 O       1.74457037706046        2.82495307827269        9.34662562638711       0.0000000E+00  0.0000000E+00  0.0000000E+00
 O       6.07754119717870        7.03339723560475        1.89639773038724       0.0000000E+00  0.0000000E+00  0.0000000E+00
 O      9.999999747378752E-006   6.49487290004966       9.999999747378752E-006  0.0000000E+00  0.0000000E+00  0.0000000E+00
 O       2.40180094312989       0.746350078625324        7.73655199721483       0.0000000E+00  0.0000000E+00  0.0000000E+00
 O       1.58669783836651        1.58786891087388        4.11882127353197       0.0000000E+00  0.0000000E+00  0.0000000E+00
 O       1.69334509485856        7.65192922581915        4.21273475753753       0.0000000E+00  0.0000000E+00  0.0000000E+00
# total energy =            -5.5372182073 ev
 
 ATOMS
 O       4.31418263566841        1.65179549622950        5.55923160081133       0.0000000E+00  0.0000000E+00  0.0000000E+00
 O       1.78837952351788        5.90382697193078        1.90031101127167       0.0000000E+00  0.0000000E+00  0.0000000E+00
 O       5.55561325346655        8.04129102256823        6.88534876899693       0.0000000E+00  0.0000000E+00  0.0000000E+00
 O       9.35790357235586        2.65365684974549        5.63290395665658       0.0000000E+00  0.0000000E+00  0.0000000E+00
 O       8.12072141223398        6.18918315905600        3.50252267564736       0.0000000E+00  0.0000000E+00  0.0000000E+00
 O       4.28965189010875        5.30142592035721        1.02935985876540       0.0000000E+00  0.0000000E+00  0.0000000E+00
 O      0.818206878244737        3.98547331323077        3.65715597386872       0.0000000E+00  0.0000000E+00  0.0000000E+00
 O       7.80980465712993        6.73522150950829        6.13806236936123       0.0000000E+00  0.0000000E+00  0.0000000E+00
 O       4.08968736998316        6.89574559033295        8.84354679016758       0.0000000E+00  0.0000000E+00  0.0000000E+00
 O       8.49923429192261        4.45860858589276        7.47018533581562       0.0000000E+00  0.0000000E+00  0.0000000E+00
 O       9.19644698434094        3.71039938419795        3.13452656823860       0.0000000E+00  0.0000000E+00  0.0000000E+00
 O      0.785290876669353       9.999999747378752E-006   5.82254099241982       0.0000000E+00  0.0000000E+00  0.0000000E+00
 O       2.10370453891126        5.18379710752169        8.14211383605878       0.0000000E+00  0.0000000E+00  0.0000000E+00
 O      0.729513311540906        5.69586720422618        5.86091476396238       0.0000000E+00  0.0000000E+00  0.0000000E+00
 O       2.07113743111983        2.71407488626986        9.24744396786719       0.0000000E+00  0.0000000E+00  0.0000000E+00
 O       6.24465952551570        7.03605880395879        1.73458966537737       0.0000000E+00  0.0000000E+00  0.0000000E+00
 O      9.999999747378752E-006   6.60688920047060       9.999999747378752E-006  0.0000000E+00  0.0000000E+00  0.0000000E+00
 O       2.73904762797705       0.684162837816521        7.62571570122516       0.0000000E+00  0.0000000E+00  0.0000000E+00
 O       2.05455789131527        1.57133612717270        3.94970668148274       0.0000000E+00  0.0000000E+00  0.0000000E+00
 O       1.73328639277034        7.55887397516806        4.12167249054896       0.0000000E+00  0.0000000E+00  0.0000000E+00
# total energy =            -5.5364072255 ev
 
 ATOMS
 O       4.35274520697069        1.71786775740395        5.46443004548500       0.0000000E+00  0.0000000E+00  0.0000000E+00
 O       1.76768742131684        5.83693141858979        1.90012159767303       0.0000000E+00  0.0000000E+00  0.0000000E+00
 O       5.58383359077284        7.93068390543315        6.63772919183172       0.0000000E+00  0.0000000E+00  0.0000000E+00
 O       9.39440736695315        2.50881744312338        5.57037065869864       0.0000000E+00  0.0000000E+00  0.0000000E+00
 O       8.22930493704725        6.15948564851886        3.29051499248746       0.0000000E+00  0.0000000E+00  0.0000000E+00
 O       4.28471749653495        5.27660960001258       0.984669217147981       0.0000000E+00  0.0000000E+00  0.0000000E+00
 O      0.775969323040693        3.98584380358361        3.65687898401903       0.0000000E+00  0.0000000E+00  0.0000000E+00
 O       7.86842934468939        6.69470955851348        5.90822866459778       0.0000000E+00  0.0000000E+00  0.0000000E+00
 O       4.18784661091298        6.88780513266553        8.68970942177189       0.0000000E+00  0.0000000E+00  0.0000000E+00
 O       8.54907863634128        4.45483330608276        7.29908798151525       0.0000000E+00  0.0000000E+00  0.0000000E+00
 O       9.23028080727119        3.64068255959711        3.08382851426538       0.0000000E+00  0.0000000E+00  0.0000000E+00
 O      0.880791705075288       9.999999747378752E-006   5.77712585164367       0.0000000E+00  0.0000000E+00  0.0000000E+00
 O       2.16410414775850        5.21220563448262        8.05346599575249       0.0000000E+00  0.0000000E+00  0.0000000E+00
 O      0.727490283081136        5.74211075874870        5.80288518813730       0.0000000E+00  0.0000000E+00  0.0000000E+00
 O       2.12774275704774        2.72381208311260        9.17275774523218       0.0000000E+00  0.0000000E+00  0.0000000E+00
 O       6.29518741139700        6.93872002353820        1.58172359669045       0.0000000E+00  0.0000000E+00  0.0000000E+00