ITEM: TIMESTEP
 0
ITEM: NUMBER OF ATOMS 
          68
ITEM: BOX BOUNDS pp pp pp
  -3.84960420785000        3.84960420785000     
  -3.84960420785000        3.84960420785000     
  -3.84960420785000        3.84960420785000     
ITEM: ATOMS id type x y z  
           1           1 -0.704865142872697      -0.943113301046147       -1.88906139434962     
           2           1 -0.740801319737285       -1.66161032729327       -1.19446034736910     
           3           1  -2.04869550289233       0.758430583034669       -2.90381607906864     
           4           1  -2.33221608684892       0.844860862573253       -1.94875279045798     
           5           1  -2.47617082190724        3.21350854147718        2.82565216750517     
           6           1  -1.76635381197376       -3.78397874727907        2.88686713634400     
           7           1   3.19039740135794       -2.49620369851114       -3.78559147410401     
           8           1  -3.56726407138772       -2.78040859857807       -3.60471325819260     
           9           1  0.817495643574914       0.723984552877433        2.26688145806706     
          10           1   1.21503862448250        1.55238810798223        2.66147888357926     
          11           1 -0.802280502057903        2.15141134240686        3.33281302639020     
          12           1  -1.16902171949041        1.53366945682861        2.63718680330888     
          13           1   1.31170715129369       -3.45467266319699        3.80487639501320     
          14           1  0.621204663545180       -3.84715739292214        3.19728932195643     
          15           1  -1.47090830000001       -2.83776214330836       -2.81332777480321     
          16           1 -0.525187783676926       -3.15478617350205       -2.88480133134928     
          17           1  -3.63292503843200       -2.58739825250295        2.04406876087778     
          18           1  -3.37591510173577       -3.15032770627465        1.25853943455336     
          19           1  -2.97405960560187      -0.719543577478288        3.30256531558341     
          20           1   3.75894743317896      -0.537800742162249        3.11974179124710     
          21           1   1.51555289852966       -1.73870299822459       -2.36614492470117     
          22           1   1.68400445155206       -1.43728366726526       -1.42765120537836     
          23           1  0.304132918335684        2.85206311445356        1.25648161603265     
          24           1  0.163247187127608        2.03887064343317       0.691796557068162     
          25           1  0.674361435379746       0.618226312328211       -1.29274444467848     
          26           1 -0.208391537744366        1.07251452086556       -1.41261692702723     
          27           1   2.37748081048791        3.43545620141655        1.90930812017451     
          28           1   2.95165835786010        3.47396580549205        2.72713276793686     
          29           1   3.33134612435098       -1.94656789111526      -0.257581673580177     
          30           1   2.66142857523308       -2.49434296758839       0.243569943177410     
          31           1  -3.11300231622601       -3.14203474444716       -1.48371397834082     
          32           1  -2.37197211481450       -3.29877766371728      -0.830792928094549     
          33           1 -0.224268423762775       -2.60606916048033        1.45002187343925     
          34           1  -1.07099347162745       -2.61535491534400       0.918072187777922     
          35           1   3.19686780102046       0.294097741802608      -0.871811885732046     
          36           1  -3.68343320930121       0.333740854746992      -0.299257010621670     
          37           1  -1.11047658990713       0.339761372916068       0.570426987102347     
          38           1 -0.338324060554751      -0.295296797577898       0.548481793925319     
          39           1 -0.195631846872808        3.79336164150373      -0.814139532583002     
          40           1  0.690865435823158       -3.54440711342588      -0.525203658391432     
          41           1   3.83838068211779       -1.00995086011707       -2.31348552954681     
          42           1  -2.98750843638720       -1.22210556254202       -1.87496097221184     
          43           1   3.59386430716406        3.29443329984959      -0.249154949615382     
          44           1  -3.73007171119491        2.59626551430306      -0.858853539919619     
          45           1   1.95649051835579      -0.458293766536671       0.696274794950532     
          46           1   2.68929425371997      -8.264550136176727E-002   1.26362571484700     
          47           1  -2.52277753332838       -1.17714152208170       0.333766149893440     
          48           1  -2.51258836246653      -0.851722426214378        1.27928113805704     
          49           1   1.26156106693172        2.26143031891315       -3.06024989024226     
          50           1  0.569927753777333        2.69570002468649       -2.48314228954497     
          51           1 -7.723972368690618E-002  0.486145140808999       -3.40746026478328     
          52           1  0.714598262918474      -0.113861968588654       -3.29351259415767     
          53           1  -2.37433802037077        2.94384531573153       -2.71730441488561     
          54           1  -1.60027301896327        2.80061689720422       -2.10061243851316     
          55           1  -3.72760680870727        1.92792836584570        1.54479316126813     
          56           1  -3.09702669423640        1.16824090272694        1.70367575192582     
          57           1 -0.787970940712599       -1.53777708925330        3.16872520759227     
          58           1 -0.730002196916168      -0.803330992589899        2.49253843173921     
          59           1   1.72545078824316       -2.17527918008435        2.20359635195063     
          60           1   1.29963114346016       -1.48409120424018        2.78749429865477     
          61           1   3.50939054978551        1.26533056917231       -3.01357477755316     
          62           1   3.68738545589231        1.54090736340793        3.74097748701096     
          63           1  -1.97263739660990        2.08104470060409      -3.685863451845515E-002
          64           1  -1.78342753463821        2.69852775178428       0.726629616627476     
          65           1   2.95779609202349        3.39110683929471       -2.47474045705397     
          66           1   2.51285173101453       -3.67458279563536       -1.84174877462984     
          67           1   2.12612503692794        1.88895522384140       0.159556650806728     
          68           1   1.70399042956075        2.20234754590418      -0.691082888443034     
ITEM: TIMESTEP
 0
ITEM: NUMBER OF ATOMS 
          68
ITEM: BOX BOUNDS pp pp pp
  -3.84960420785000        3.84960420785000     
  -3.84960420785000        3.84960420785000     
  -3.84960420785000        3.84960420785000     
ITEM: ATOMS id type x y z  
           1           1 -0.583793225315119      -0.931841000568498       -1.78947549755542     
           2           1 -0.645964827132057       -1.65322219111562       -1.09973361115706     
           3           1  -1.98130724148550       0.767450813769996       -2.68346829033322     
           4           1  -2.25175647542038       0.788201976123397       -1.72095771837827     
           5           1  -2.50544872479297        3.28837141891305        2.77790956993423     
           6           1  -1.77208211648513       -3.73227514383744        2.81946952109911     
           7           1   3.19330050836974       -2.51664065345710       -3.66038215144193     
           8           1  -3.56671523434133       -2.83031470251101       -3.52064771061203     
           9           1  0.763286720318136       0.656571743280176        2.16505822315630     
          10           1   1.10203572633793        1.53963334793563        2.48979090291605     
          11           1 -0.770773617777263        2.17650616840117        3.36054940416083     
          12           1  -1.10029173486506        1.60984648324494        2.60535763266859     
          13           1   1.30066292983300       -3.48715104232502        3.84454466303770     
          14           1  0.647896152485398        3.80090364068417        3.20826788168729     
          15           1  -1.50604343533458       -2.77232394850440       -2.62596882331117     
          16           1 -0.556374811578268       -3.08203671723395       -2.57898472026905     
          17           1  -3.57731738916222       -2.65300053130889        1.90732032261048     
          18           1  -3.30927307779832       -3.18321598419742        1.10294241350080     
          19           1  -3.03184442929398      -0.771461429036799        3.45479824941013     
          20           1   3.71254716908519      -0.588699905624045        3.22044153215813     
          21           1   1.47339881829581       -1.67121176035070       -2.44093918947324     
          22           1   1.64382930154008       -1.42705612975766       -1.48629712124514     
          23           1  0.246681308091212        2.87273448990224        1.20829030594960     
          24           1  0.130799533917496        2.05521567338061       0.644167625101346     
          25           1  0.684111791393703       0.708560289731088       -1.34479150767069     
          26           1 -0.198120168459863        1.17871785207370       -1.36966389366341     
          27           1   2.38644196813137        3.42949194511901        1.82592577243007     
          28           1   2.90670176247879        3.49612709099646        2.67733020260382     
          29           1   3.25047109364630       -1.97275338595040      -0.329681834076885     
          30           1   2.53187243448040       -2.48348794151765       0.142299289268642     
          31           1  -3.13228566124230       -3.16682655751733       -1.42630291878976     
          32           1  -2.37988201189558       -3.26817232494763      -0.775443652992853     
          33           1 -0.189465154526149       -2.58976977180648        1.40243426165339     
          34           1  -1.02143443082216       -2.57275059966726       0.847873650827857     
          35           1   3.17714583369763       0.395963039290117      -0.834995384174076     
          36           1  -3.66486189732405       0.426283634973509      -0.320906240479652     
          37           1  -1.05661665645089       0.261577986004324       0.594309190633555     
          38           1 -0.265586916559636      -0.349647345230104       0.620300440409834     
          39           1 -0.232301653321903        3.77785294165744      -0.686485817087610     
          40           1  0.669658265189860       -3.53602732299235      -0.491574243787119     
          41           1   3.84667612743797      -0.998034690152084       -2.25283538482955     
          42           1  -2.98032089601280       -1.18153517031177       -1.79943174455761     
          43           1   3.53374544318151        3.22490395365766      -0.297269488798853     
          44           1  -3.75144114035324        2.50204847153134      -0.850501695426833     
          45           1   2.10607206812832      -0.383587844783653       0.798721092650574     
          46           1   2.83161509993333      -5.257637471348019E-002   1.40206072808086     
          47           1  -2.56671487660258       -1.20827974413343       0.414937986388114     
          48           1  -2.54328581685119      -0.828054556668769        1.33953513432693     
          49           1   1.33522775952302        2.16314573640428       -2.99072722676862     
          50           1  0.674332553002130        2.66787213853369       -2.43532756437121     
          51           1 -2.161200623663352E-002  0.569719736017147       -3.49475776209651     
          52           1  0.767560778608354      -1.843035614267766E-002  -3.31787988119449     
          53           1  -2.42455732919811        2.95336544996017       -2.75876578225644     
          54           1  -1.75176294998446        2.87524939281694       -2.02307182080582     
          55           1  -3.62415021862676        2.09408662136642        1.45008870456774     
          56           1  -3.00715268859451        1.33099387260679        1.64245165506649     
          57           1 -0.772464327052461       -1.60385966418962        3.25702172372751     
          58           1 -0.716096449894525      -0.837478494663075        2.61711347607021     
          59           1   1.84768986055383       -2.19431103290818        2.12183769944908     
          60           1   1.52757047875615       -1.46935092116460        2.73171999774786     
          61           1   3.49259221017811        1.32577911714616       -2.91364291177205     
          62           1   3.70925904783022        1.63623595690869       -3.83920870203577     
          63           1  -1.90789142707771        2.35983543246651       1.636400327499643E-002
          64           1  -1.78695448021252        3.02117918046524       0.756633347409909     
          65           1   2.83499686523579        3.44266075880038       -2.55694644873215     
          66           1   2.40542694076015       -3.63385298159797       -1.90294260980076     
          67           1   2.16563844587801        1.99946408059977       0.167786808489890     
          68           1   1.74521525898400        2.32761745108646      -0.678120816112296     
ITEM: TIMESTEP
 0
ITEM: NUMBER OF ATOMS 
          68
ITEM: BOX BOUNDS pp pp pp
  -3.84960420785000        3.84960420785000     
  -3.84960420785000        3.84960420785000     
  -3.84960420785000        3.84960420785000     
ITEM: ATOMS id type x y z  
           1           1 -0.634927014170263      -0.931385483122289       -1.69809262033376     
           2           1 -0.697881696767517       -1.69002385034938       -1.04962940957302     
           3           1  -2.02879076039656       0.847583802083477       -2.75616614927348     
           4           1  -2.33087363794154       0.858090081190245       -1.80294238058457     
           5           1  -2.50045562129546        3.34212366095739        2.82138172346240     
           6           1  -1.78220681997995       -3.66325534491300        2.87352968089489     
           7           1   3.20623100060387       -2.45684049381961       -3.76568766240006     
           8           1  -3.57188940953965       -2.80978750507716       -3.60129394821258     
           9           1  0.793256422494819       0.688220752602093        2.36579295470836     
          10           1   1.18000980069549        1.52776202354161        2.74735851767184     
          11           1 -0.754058522550772        2.28373023657522        3.39746632150080     
          12           1  -1.02937053061164        1.68425763864792        2.64591066650790     
          13           1   1.24914075953151       -3.30916855542960        3.79481204601356     
          14           1  0.633995554562286       -3.77916399623079        3.16180283405099     
          15           1  -1.50809792164926       -2.74210772170269       -2.77424055568578     
          16           1 -0.551742789838200       -2.99657248483445       -2.63060021948826     
          17           1  -3.56059550751463       -2.59965584177081        1.98255705185062     
          18           1  -3.26871913249028       -3.16159701257319        1.20858657291754     
          19           1  -3.02504960566535      -0.822619508467039        3.44928564080937     
          20           1   3.74187639243016      -0.566543828519584        3.19379642388440     
          21           1   1.39991573256819       -1.82585649231533       -2.38206562648181     
          22           1   1.53674414605624       -1.53056292112720       -1.43650775301383     
          23           1  0.121340416888860        2.80339879706696        1.26684142519711     
          24           1  4.902100820441201E-002   2.01789301967632       0.652227256133726     
          25           1  0.587175787825371       0.706817281388567       -1.24089811472598     
          26           1 -0.311442021298278        1.14181709685139       -1.29800497660011     
          27           1   2.40511964885812        3.43123431177948        1.81166255756970     
          28           1   2.92003966636868        3.42291692032347        2.66886043237242     
          29           1   3.26985792338450       -2.17313340176665      -0.215392902259209     
          30           1   2.51782028634981       -2.69065522141770       0.192786664437075     
          31           1  -3.13466542055302       -3.18128491059440       -1.46386589249248     
          32           1  -2.36891436332730       -3.30741105074945      -0.833217404721939     
          33           1 -9.904128540842427E-002  -2.57495079227100        1.35300661519621     
          34           1 -0.949460330097591       -2.51556937376169       0.830262609428764     
          35           1   3.17280531914547       0.427889777161944      -0.840805563074753     
          36           1  -3.66284022749317       0.500031986803006      -0.341751785645226     
          37           1  -1.10103232379277       0.370680707107962       0.537401940710724     
          38           1 -0.324342964270847      -0.258716681138940       0.512651860440234     
          39           1 -0.197239042684305        3.77672379488295      -0.739084088117652     
          40           1  0.675371479958789       -3.49044129151706      -0.511291556677498     
          41           1   3.81498820213749      -0.992554937001051       -2.29337623987094     
          42           1  -3.00405779432309       -1.18541276983817       -1.85964824668625     
          43           1   3.60655781247679        3.17246564967790      -0.276561240814230     
          44           1  -3.65625859792114        2.47392445537141      -0.843661071148624     
          45           1   2.14133623132827      -0.469073943106068       0.717450235990295     
          46           1   2.81539232913297      -0.101153245987821        1.35798340269152     
          47           1  -2.52172849047072       -1.20664561315513       0.439987788564515     
          48           1  -2.56166283895130      -0.833688802829564        1.36697671268561     
          49           1   1.33599000062217        2.25616152296325       -2.99275114058361     
          50           1  0.682794897265017        2.77107408593299       -2.43759241603167     
          51           1 -3.863487089243378E-002  0.631289617811372       -3.31542150137810     
          52           1  0.755319873811935       4.579195010818333E-002  -3.15162789809781     
          53           1  -2.33346205338435        2.96582459904083       -2.76347119133707     
          54           1  -1.62208070530536        2.87665155515745       -2.06634512967399     
          55           1  -3.61812169207588        1.94303471315447        1.54633451522741     
          56           1  -3.02258234403763        1.16498602353367        1.74626730772912     
          57           1 -0.789451410363873       -1.48812207531280        3.37720042089329     
          58           1 -0.705003305874147      -0.742593479917095        2.71609858978449     
          59           1   1.93038985893557       -2.17041971254599        2.14852738476198     
          60           1   1.59401730814878       -1.46787680835789        2.77565334886499     
          61           1   3.60663295517163        1.30752527473315       -2.89361689548268     
          62           1  -3.79920231365609        1.59844356819789       -3.80427530741430     
          63           1  -1.93572717838837        2.19749687316104       1.493808094378891E-002
          64           1  -1.86028991013224        2.94832400975330       0.671114756477699     
          65           1   2.93275229245842        3.47653161617687       -2.51809336553112     
          66           1   2.49485517643338       -3.63364642460903       -1.83891052328205     
          67           1   2.18309969324442        1.95583132696324       0.249548768558702     
          68           1   1.71214468389077        2.26766257521452      -0.575655843509580     
ITEM: TIMESTEP
 0
ITEM: NUMBER OF ATOMS 
          68
ITEM: BOX BOUNDS pp pp pp
  -3.84960420785000        3.84960420785000     
  -3.84960420785000        3.84960420785000     
  -3.84960420785000        3.84960420785000     
ITEM: ATOMS id type x y z  
           1           1 -0.676894766026917      -0.845828019294332       -1.84511601503540     
           2           1 -0.635306282831679       -1.60948092934029       -1.20082987437747     
           3           1  -2.04445742936413       0.722402915849386       -2.75729142588107     
           4           1  -2.32476994849433       0.747630690875088       -1.79771420075213     
           5           1  -2.49037861926221        3.34209140010654        2.81666034222291     
           6           1  -1.78299455282803       -3.65760019950350        2.91807043325164     
           7           1   3.26283119743024       -2.49673243724129       -3.78775971306193     
           8           1  -3.51446502488225       -2.85041305028931       -3.62968399817372     
           9           1  0.845021610172240       0.830687931753902        2.38924579687852     
          10           1   1.14096833666375        1.74406005786131        2.66882922687575     
          11           1 -0.875024745461807        2.30408366086070        3.36810592535753     
          12           1  -1.14045922602429        1.76067187800875        2.57170893215237     
          13           1   1.26308245664755       -3.27374400162142        3.76322459254093     
          14           1  0.654901285796697       -3.80875917153823        3.17681651672566     
          15           1  -1.40816051683067       -2.78268714913018       -2.88927055978981     
          16           1 -0.450504911125274       -3.04513431424096       -2.77087619173816     
          17           1  -3.51846492317413       -2.58246858974246        1.87673888075976     
          18           1  -3.20047864820137       -3.12141053991364        1.09672201986852     
          19           1  -3.05278012131242      -0.846076478330696        3.45705616388455     
          20           1   3.74634729193262      -0.504395880962637        3.18667022045953     
          21           1   1.48022732831699       -1.72420144280197       -2.36026924923106     
          22           1   1.60184891101257       -1.31695743000959       -1.45508390651534     
          23           1  0.219470775633610        2.85232774101002        1.26782658679322     
          24           1  0.161297564927539        2.03574064325367       0.693543216553388     
          25           1  0.640958059109507       0.708155269684726       -1.12435866808139     
          26           1 -0.248973884543589        1.12948673232841       -1.29900383478332     
          27           1   2.50021001912387        3.50298218697534        1.85029676445268     
          28           1   3.01165776564458        3.50341607014593        2.70961103427734     
          29           1   3.23504114803573       -2.04783841531454      -0.326796200392922     
          30           1   2.47399545977218       -2.55897983335558       7.263328166678130E-002
          31           1  -3.15408609228475       -3.21115953981965       -1.59213001580095     
          32           1  -2.41632483640993       -3.29946273758215      -0.922868576156532     
          33           1 -9.264128810721695E-002  -2.49791321355003        1.59725841059439     
          34           1 -0.912775603432237       -2.41982577039827        1.03044093022846     
          35           1   3.07392003769207       0.375904069611790      -0.916250413340401     
          36           1  -3.83220938397981       0.468399026891639      -0.314195272917865     
          37           1  -1.08818155179232       0.405871659482524       0.541739667032774     
          38           1 -0.316061713064153      -0.228329759399269       0.581982864355015     
          39           1 -0.305422509986571       -3.84830835595005      -0.676305003459569     
          40           1  0.577000821455553       -3.39592206461650      -0.547170548181192     
          41           1  -3.83118337612623       -1.01412758727042       -2.26945088147885     
          42           1  -2.90141128741594       -1.18371056569016       -1.94270101309996     
          43           1   3.64425030863558        3.21445862333481      -0.300788800202812     
          44           1  -3.70483248163952        2.46462438790028      -0.862180522435288     
          45           1   1.97108570199528      -0.308117244201733       0.649828748160664     
          46           1   2.56596227648708       0.151582171174986        1.30922112650848     
          47           1  -2.48487303863452       -1.14581247095820       0.321484149999159     
          48           1  -2.57009112398979      -0.792900932595853        1.25325199877860     
          49           1   1.28052270678442        2.25474346894072       -2.97067851426592     
          50           1  0.573526006976528        2.74518187783290       -2.46114359539969     
          51           1  6.409183986260621E-002  0.522516616223945       -3.42863272532311     
          52           1  0.892354593348047      -3.297682733992927E-002  -3.35509467159406     
          53           1  -2.40068833049224        2.91435227876769       -2.81143604189391     
          54           1  -1.62843812462545        2.86950614090012       -2.17770230959221     
          55           1  -3.72041898789707        2.01806734249315        1.42038417249151     
          56           1  -3.12954475390409        1.25908265941283        1.69389814005567     
          57           1 -0.776793960206077       -1.40891617790233        3.26648706227744     
          58           1 -0.730532414754211      -0.662520198467369        2.60259481853926     
          59           1   1.86648472217719       -2.08888825493905        2.12022914836989     
          60           1   1.47420535696650       -1.41908679236181        2.75069159797278     
          61           1   3.56275600519319        1.27636006637554       -2.90860547014493     
          62           1   3.81107990196255        1.56945325943950       -3.83187770652641     
          63           1  -1.88888404200669        2.30917230298131       6.155087154731723E-002
          64           1  -1.92868986996480        3.11043891813028       0.658532703354866     
          65           1   2.89564673587803        3.38028225824328       -2.53407954578712     
          66           1   2.49123866261870       -3.59403973090547       -1.97641138380864     
          67           1   2.16663632191563        1.98793622956869       0.151426770767363     
          68           1   1.68335792867254        2.36960921718612      -0.636461371767830     
ITEM: TIMESTEP
 0
ITEM: NUMBER OF ATOMS 
          68
ITEM: BOX BOUNDS pp pp pp
  -3.84960420785000        3.84960420785000     
  -3.84960420785000        3.84960420785000     
  -3.84960420785000        3.84960420785000     
ITEM: ATOMS id type x y z  
           1           1 -0.747924317434710      -0.754774073068566       -1.72653910143937     
           2           1 -0.720120469914341       -1.54336831438239       -1.11225409541222     
           3           1  -2.16414705568274       0.787342245082609       -2.73843536130926     
           4           1  -2.43033070875686       0.837273278038149       -1.77580710762868     
           5           1  -2.50107526103456        3.35297533422536        2.78002304419378     
           6           1  -1.79070562991262       -3.64856997973754        2.87298101133102     
           7           1   3.25812042046108       -2.60120353707755       -3.77835406515079     
           8           1  -3.55137911496338       -3.02985584698537       -3.62127031179114     
           9           1  0.878145663274395       0.819401024063433        2.42346297881589     
          10           1   1.19638849880872        1.71337116154575        2.73896082495899     
          11           1 -0.889262947913022        2.14156267326559        3.33355713117397     
          12           1  -1.15461886479194        1.72590234376602        2.46360728902346     
          13           1   1.30602926928954       -3.32972202095804        3.80946083411279     
          14           1  0.676636855740138       -3.78445278442532        3.17931392860351     
          15           1  -1.42797692339771       -2.67745497165897       -2.81514121455587     
          16           1 -0.488104654127785       -2.98422052319670       -2.66502454710302     
          17           1  -3.53939450807400       -2.51633204549107        1.99434124429006     
          18           1  -3.33207112664800       -3.07133982294163        1.18874619559408     
          19           1  -3.05535908301475      -0.787482186268926        3.34120699679249     
          20           1   3.77768609236995      -0.441024692238055        2.98102864381119     
          21           1   1.46021792322002       -1.75631093893269       -2.29246302792359     
          22           1   1.62376970543528       -1.39592855158012       -1.37410833096807     
          23           1  0.178149620265530        2.89886731445564        1.23149426896747     
          24           1  0.245645953008262        2.11560101665230       0.613482819403842     