ITEM: TIMESTEP
 0
ITEM: NUMBER OF ATOMS 
         167
ITEM: BOX BOUNDS pp pp pp
  -2.84960420785000        2.84960420785000     
  -2.84960420785000        2.84960420785000     
  -2.84960420785000        2.84960420785000     
ITEM: ATOMS id type x y z  
           1           1   1.86387753977391       -1.39735498714804        2.46929616088823     
           2           1 -8.662379242254384E-002  -2.16437304649849       0.273587904919199     
           3           1 -0.208456332886593        2.73948267416238       -2.60088810602955     
           4           1 -0.302233451460650       0.461876755521953        1.78964965240430     
           5           1  0.697601794966163        1.43981713235123       0.300375662714125     
           6           1  -1.24164536157086       -2.58017907357610       -2.36660992502602     
           7           1   2.33956987758194        1.96080156199341       -2.79036455672771     
           8           1  -1.74179586799563      -0.198252553030709      -0.209421929759197     
           9           1   1.01009618598295       -1.27136168841317        1.46843998651972     
          10           1   1.73220539897857        1.44121010384047        2.38236223765816     
          11           1  0.110756835556548       0.402741107009555      -3.734074300081051E-002
          12           1 -3.224115492949538E-002   2.18509704154630       -1.31456321403221     
          13           1  -1.35017757583213        2.07992527825722        1.23666315528281     
          14           1  -1.85565259578364       0.135381264452541       0.907978693796781     
          15           1  0.639740425743153      -0.170009099415838        1.62843664416646     
          16           1  -1.16208735982325      -0.179000859185434       -1.12020544162095     
          17           1 -0.961431734686923       0.441991460486307       0.128430837016857     
          18           1  -2.68889749430200      -0.232238572452200        1.50689486230599     
          19           1 -0.943716194764111        2.24094882012717       -1.79870747244426     
          20           1   2.56796510931152        2.62974625751180       -1.95715327428115     
          21           1  -2.75779552867631        2.49541300681624      -0.179614342450217     
          22           1  -2.84377891722733       0.259066152183436       0.275910929665461     
          23           1  0.302079187354414        1.82624791820256       -2.35256194927448     
          24           1  -2.66263917708007      -1.944650836987291E-002 -0.709443425052346     
          25           1   1.99439764880434        2.22409767342841       -1.04628345537340     
          26           1  0.305232766754908       -1.17392412079439        2.64316352834816     
          27           1  0.651834384362612      -0.741927291439866       -2.22859304419875     
          28           1  -2.35570038744565       -1.08458390372247      -0.227858556199326     
          29           1   1.31827815209074      -0.274209663333540        2.35397959661240     
          30           1   1.76985771368576       -1.66920075577955       0.706418373691972     
          31           1   2.34317864186264       -1.20018274887893       -1.06668131638270     
          32           1  0.301944843304342        2.62866571750168        1.85636876327723     
          33           1  -2.03274404944425       0.937371838374191       8.612072735842516E-002
          34           1  0.520009885203075      -0.709410669455445      -0.608353448115902     
          35           1   1.69574219357568       0.871248893483095       0.265566282087770     
          36           1  -2.14595820893346       0.283529763866896       -1.76258909040907     
          37           1 -0.956182216267235      -2.043548520725729E-002   2.52676523348810     
          38           1   2.81591331754766        1.58277661148037        2.01017463450307     
          39           1   2.34709107122755       1.344921903967598E-002  -1.52778200228104     
          40           1   2.01792321522725       -2.13053568034748       -1.68033753472900     
          41           1 -0.981379144266941       -1.38921180988364        2.47219261132957     
          42           1  -1.18175292599833       -2.05370682528674       0.443215609818945     
          43           1   2.63980437985133        1.45698035430865      -0.105680495996790     
          44           1  0.986018234714831        2.30574346881296       -1.47311843769034     
          45           1  -1.04279776228623        1.71387216824821       -2.71130657188336     
          46           1  -1.57029775204355      -0.830302746316180       0.679376445766029     
          47           1 -0.623542994377989       -2.51281439877618       -1.59935519661341     
          48           1  -1.79872437744734        2.74517860645512       -1.36836990992521     
          49           1 -0.384478369731311      -0.816307959822077        1.78313155469280     
          50           1   2.55213586416266       -2.49620497634446        2.80456543796380     
          51           1  -1.88461883353535      -0.886753257374838        2.45237022191828     
          52           1  -2.19020954172884        1.76986820905347       0.583728395250976     
          53           1  -1.85298182994608       -1.98275596348056        2.31139853378578     
          54           1   2.08949062990353       -2.14892077255290        1.64741665502468     
          55           1   1.64315306854899        2.60006141604036       0.866270776027808     
          56           1   1.47738767835314      -0.264652757122751       -2.06893654717516     
          57           1  -2.73046454242404       -1.40939142248100       -2.72515726487707     
          58           1  0.888851720703739        2.08640284643861        2.62927824280507     
          59           1  -1.78312729463935       0.554838580573733        1.91302712502886     
          60           1  0.190835811665437      -4.312369500253883E-003   2.60401862408844     
          61           1  -1.10431514915943        2.61863687251044       0.338865047809320     
          62           1  0.954925472626508       -2.33536263995790       0.174432678727438     
          63           1  -1.52236121220973       -2.01735939247476       -1.40192309177775     
          64           1   2.03493015259578       0.435123065554844        1.92871190755674     
          65           1  0.893971773266844       0.449158837373921       0.799209908168423     
          66           1 -0.943321917147767        2.51799655308140      -0.800398717591762     
          67           1 -0.612303273601917      -5.501133508134164E-002  0.920853640082249     
          68           1 -0.389546238934213       0.548584376249696       -1.01889667213088     
          69           1   1.12936176087330       -1.46110976152500       -1.54766646619833     
          70           1 -0.499119747170012       -1.17217046067482       0.668237659137928     
          71           1  -1.90757160002524        1.92438585945323      -0.459845802941275     
          72           1  -1.52376028517466      -0.411054652658405       -2.23271012869914     
          73           1  -1.10778238077645        1.55665317404187       0.268865263884139     
          74           1   1.45050826454762       0.772499214623495       -1.69319731451524     
          75           1  -1.97672450532269       -1.23406656021604        1.52838688611306     
          76           1  -2.03593208629872       -2.35995448655730      -0.513055321580609     
          77           1  -2.73214953094474       -1.78235347017000       -1.65247541382527     
          78           1  -2.32601755791035       -2.45669607847537       -2.29319383653981     
          79           1   1.29326088836534       -1.40159425014841      -0.448342194360183     
          80           1  0.484375060904317       -2.64029178451248       -1.83546770264550     
          81           1   2.84844021519080       -1.39317568721199        1.94674605690586     
          82           1   2.42121235325418      -0.427514293149442        2.43315635289244     
          83           1 -0.279235614266064       0.906539399512230       -2.78571435140716     
          84           1   1.11967567661420       0.846982809700881        1.78829765489462     
          85           1 -0.955207007452778        1.15566931241989        2.12044729509406     
          86           1   2.10491666677761       9.540676070021277E-002  0.907303052235675     
          87           1   1.05819435449792        1.86672729255602        1.55850903870877     
          88           1  -2.16726613652549        2.77777973103618       0.599985251626348     
          89           1  -2.65128012285114      -0.654290246460134       -1.92885206340002     
          90           1   1.22874828367023       7.820345039678545E-002 -0.258032841802197     
          91           1  -1.37332529976160       -1.35404251548194      -0.401163524596754     
          92           1  -1.77968007980124       -1.47563461678823       -2.42041728558394     
          93           1  -1.55683347247382       -2.58677606973688        1.46068997271878     
          94           1   1.44677631692976      -0.614205031684904       0.551260077549877     
          95           1  8.104727906156881E-002   1.38293911760212      -0.542038805633089     
          96           1  0.942603212249271       0.950954913306468       -2.76786032738419     
          97           1   1.49190644673991      -0.548026099011706       -1.02811867047084     
          98           1 -0.164494296358745      -0.384908301217027       -1.41487580408544     
          99           1   2.25249758002466        2.48156979520588        1.78522558564186     
         100           1  -1.60122298833384       0.672182080075624      -0.888275208729232     
         101           1  0.337308000258757       -2.21137220976124        2.41677081243208     
         102           1   2.55632895313361        2.06443560872768       0.773381493693410     
         103           1   1.88351920239346       -2.73990001969624      -0.228529547876908     
         104           1   1.98343764868153        1.30730924291188        1.34728192155124     
         105           1  0.583852307105135        2.45973504959374       0.689559519856912     
         106           1   2.57531687847556       -1.73028670423865      -6.559881054565356E-002
         107           1   2.43831008272514       -2.50395988817729       0.800403882179933     
         108           1  0.303160104500609      -0.369964203469428       0.571514861575281     
         109           1 -0.457012837815174       -1.83090361081601       -2.36230919873375     
         110           1   1.39617459947935       -2.56279735573265        2.28402371215768     
         111           1   2.82939592281719      -0.906222182981773       0.691988252675138     
         112           1   2.46074006626369        1.14542638268227       -1.67196747117339     
         113           1  -2.16798194365519       -1.82805180832174       0.539971245100432     
         114           1 -0.901560773476766       -2.24868779174300      -0.557812571812767     
         115           1  -2.56297140228322        1.31158470081533       -2.53751430900062     
         116           1  -2.38645263532818      -2.476200985485938E-002  -2.73846217905044     
         117           1   1.11818875748166       -2.39478916878224       -1.00788027841010     
         118           1  -2.75218151314065       0.633390054526794        2.18076448565193     
         119           1   2.22792642028054      -0.639779258358078      -0.107455325652429     
         120           1 -0.908944083461934       -1.14521197624485       -1.54045671910997     
         121           1   2.15670076538989       0.486465688956353      -0.720869253513249     
         122           1  -1.98072793852546       -1.04218636987006       -1.25188339353527     
         123           1  -2.58472954165718       0.931452170535261        1.10455723461959     
         124           1 -0.161240666958053        2.26330204939092       5.501795679411822E-003
         125           1  -1.05300525222139       0.929751265561299        1.14091974923055     
         126           1  0.456005736761210        1.15676305114375       -1.51256694804744     
         127           1  0.702099617752646       0.272270326859034       -1.02959928581761     
         128           1   2.71218217773992       -2.69262070742220       -1.02304963669804     
         129           1   2.14305078772225       0.737448472552099       -2.67997759829915     
         130           1  4.133402791837121E-002  -1.57744710554225       -1.52004360088210     
         131           1 -0.814513775734603       0.269608122858661       -2.08442909546654     
         132           1  0.444347253975224       0.289660553843739       -2.00009416136695     
         133           1  -2.50001271859882        2.50426194889374        2.50872688100733     
         134           1   1.61312789246547        2.73217892877750       -2.38131532860741     
         135           1  -2.55596654263750        1.11013221447885      -0.913524762146140     
         136           1 -0.340580207801323        1.89480975975312        1.09532262423919     
         137           1  -1.51998445198167        2.59118110536531        2.40566091365082     
         138           1  -2.56763725855099       -2.36467275159595        1.60006102844796     
         139           1 -0.755376280674187       -2.36809389720512        2.22891729522459     
         140           1   1.12753850194540        1.22331689591189      -0.685359936926769     
         141           1  -1.99058812409782        2.26531294394847       -2.28634388128301     
         142           1  -1.60989516489978       0.766396713583547       -2.68150337900389     
         143           1 -0.605059843128318        1.23622762199967       -1.81396168450751     
         144           1  0.104521692274582       -2.54136752835087      -0.609663089695083     
         145           1   1.70155957851010        1.95383397535114       9.043604319080613E-002
         146           1   1.57298499804386        1.61794310566461       -2.24194758864296     
         147           1 -0.697644424030585      -0.547922572543981      -0.122746881720278     
         148           1   1.10226033898817       -1.69317261983151       -2.52407256552014     
         149           1 -3.423676133982045E-002  0.900201908190827       0.784751984942902     
         150           1  -2.36516742897635        2.26664124142237        1.48033989727828     
         151           1  0.935852424026834        2.29395828861897      -0.454962340111889     
         152           1 -0.866657217588111        1.38146536434490      -0.878206898268410     
         153           1  -2.67047388536935        2.03381287670747       -1.19632086241476     
         154           1 -0.187847597707153       -1.44281264566829      -0.466949459850919     
         155           1  -1.05053229364181       -1.65353489634212        1.45260622746701     
         156           1 -0.464625763341595      -0.670429056238653       -2.45769437230995     
         157           1 -0.472287835516485       -2.63616236806013        1.17946274910807     
         158           1 -0.552084766527809        2.23946383361393        2.19528319846080     
         159           1   1.88782358045062      -0.652650543556595        1.58247950941220     
         160           1  5.691371785622023E-004  -1.76664887182862        1.33117877530992     
         161           1  0.568555089193251       -1.38823071098765       0.449934758245347     
         162           1  9.791353981990625E-002   1.41914131635946        1.87393435930323     
         163           1  -1.89547009293779        1.64800988141608        2.31152840026551     
         164           1  0.920086667755773       -2.28057550006266        1.21127994234942     
         165           1  -1.37784919754396      -0.391495583904157        1.56493093985763     
         166           1  -1.81042100611208        1.59777355606059       -1.49471845149030     
         167           1   2.08880393203392       -1.10873254813158       -2.20148462605919     
ITEM: TIMESTEP
 0
ITEM: NUMBER OF ATOMS 
         167
ITEM: BOX BOUNDS pp pp pp
  -2.84960420785000        2.84960420785000     
  -2.84960420785000        2.84960420785000     
  -2.84960420785000        2.84960420785000     
ITEM: ATOMS id type x y z  
           1           1   1.72571240122035       -1.84073445054008        2.53074163891077     
           2           1 -0.501135791943167       -1.98693464073134       0.637241291535960     
           3           1 -0.264337032488623        2.75811880501592       -2.49858506561244     
           4           1 -0.278370919013927       0.240929573257779        1.35159347956423     
           5           1   1.23747431296001        1.78272961792416       0.122658318912697     
           6           1  -1.75803590517354       -2.77603565687259       -2.14979776334180     
           7           1   2.67926543259220        1.93181689615486        2.59698288070122     
           8           1  -1.63292602431534      -8.540502708850471E-002 -0.385961372610778     
           9           1   1.04171876394937       -1.15882270717028        1.53265010484275     
          10           1   1.62490525617071        1.36634229131854        2.12856013939774     
          11           1  0.449396282245424       0.565357054950454      -0.238005606037543     
          12           1  0.205996053533707        2.27353688386089       -1.47685764862132     
          13           1 -0.837328002492360        2.04515784051024        1.54150308796217     
          14           1  -1.96580327555753       0.420255996171517       0.797186665356291     
          15           1  0.787940906180127      -0.181067426139094        1.53605350049887     
          16           1  -1.09909089621908      -0.338132928260400       -1.39061865557888     
          17           1 -0.629936700571236       0.890121036189854      -0.117174758316714     
          18           1  -2.60931865455835      -0.179813919283242        1.44495251743164     
          19           1  -1.15427310520196        2.29400713029443       -1.63335681130634     
          20           1   2.31608337105839        2.55559271339061       -2.17487771914066     
          21           1   2.76818144086854        2.65498528946767      -0.389773275106112     
          22           1   2.72855690334868       0.262257570570287       8.976324200584240E-002
          23           1  0.340112529798331        1.81913248567318       -2.40506703711882     
          24           1  -2.72072922574595      -0.328666767149071      -0.970127302620989     
          25           1   1.91800135070994        2.02896991752405      -0.685369073356739     
          26           1  0.169988431681228       -1.09338067509434        2.53623489389354     
          27           1  0.559101510024483      -0.719402226002807       -2.25596558142553     
          28           1  -2.33671921840250       -1.29940266188463      -0.281417407509975     
          29           1   1.17608759570653      -0.851491479674944        2.54963141347764     
          30           1   1.73383550904626       -1.57308578804496       0.326901100505769     
          31           1   1.87791508114074       -1.28773661540626      -0.730082391726267     
          32           1  0.474632469164348        2.51898172026478        1.57118181834738     
          33           1  -1.60766412787756       0.920830440938391       5.895010778790429E-002
          34           1  0.728595682710166      -0.587047316944536      -0.490168088522030     
          35           1   2.25852355972746        1.09063821572411      -0.173020783832535     
          36           1  -2.25384086981768       0.149911067987300       -1.71432619512497     
          37           1 -0.602204642124693       2.218051351627880E-002   2.30408711856196     
          38           1  -2.54467938501852        1.37195535091653        1.86237333526531     
          39           1   2.56816613023716       6.889496588416247E-002  -2.17838250642446     
          40           1   1.96155407146982       -1.81681597701292       -1.77256459450180     
          41           1  -1.04936283870216       -1.13904145635780        2.57378639546520     
          42           1  -1.58899798736333       -1.66669937086920       0.519318342949823     
          43           1  -2.51122701442856        1.43996797436857       0.209260450383496     
          44           1   1.36394487323040        2.32567830099338       -1.52143099719560     
          45           1 -0.945463478882345        1.42886473997885       -2.54015748456620     
          46           1  -2.25115338658006      -0.595814037483476       0.425672610056017     
          47           1 -0.727532692041835       -2.28381686804864       -1.73560857042633     
          48           1  -2.42897458055305        2.55152425806662       -1.28271572670888     
          49           1 -9.320893949213277E-002 -0.812803868699989        1.55612459236319     
          50           1   1.94781368141237       -2.83978571563458        2.53522851548954     
          51           1  -2.24240165640380      -0.228187597171402        2.49638874447059     
          52           1  -1.74727594146895        1.76087805067754        1.05129588787592     
          53           1  -1.84339852042149       -2.06879335922998        2.07538462903609     
          54           1   2.02488170673264       -1.94822894699418        1.38541544168332     
          55           1   1.16220536990180        2.60107392001361       0.726329431339934     
          56           1   1.46920942843297       0.133786890540780       -2.22169529397700     
          57           1   2.58218719336370       -1.66826367619652       -2.64405072618247     
          58           1  0.821917686186391        2.50440508301423        2.61494671201243     
          59           1  -1.77869940716882       0.582252677156684        1.84317417965335     
          60           1  0.498328208363601       7.760271404572205E-002   2.77495567627870     
          61           1  -1.16862753753813       -2.58022153251414       0.187307163077749     
          62           1  0.455680402356584       -2.45790639390626       0.154050255738997     
          63           1  -1.77076061042214       -1.97874053816693       -1.13354661740566     
          64           1   1.49073181901697       0.175664369235103        2.36419277988426     
          65           1   1.11926969929421       0.660099879454873       0.551069674382626     
          66           1  -1.41767459880099        2.75064770197531      -0.791572570562424     
          67           1  -1.09183095054763      -2.360636768387789E-002  0.722306143374678     
          68           1 -0.190097098834710       0.499316168655758      -0.985657918610360     
          69           1   1.01462183412633       -1.19639352512262       -1.36337465430981     
          70           1 -0.617183947617952      -0.929470949799670       0.610376474938181     
          71           1  -1.93942119188528        2.25005918462505       5.687395619694101E-002
          72           1  -1.53708301911826      -0.550647218272337       -2.44721070621106     
          73           1 -0.829765117625031        1.92600674577665       0.484046134601762     
          74           1   1.82511826873555        1.27555894491831       -1.77057324108213     
          75           1  -1.90442191160777      -0.987693762227479        1.32810620525024     
          76           1  -2.15298265946608       -2.48785020019262      -0.264929151345087     
          77           1   2.80618341872708       -1.62210502764505       -1.25530759679683     
          78           1  -2.67983412956640       -2.36632145213620       -1.92107611124633     
          79           1  0.976804048864570       -1.53564113223603      -0.372263477460063     
          80           1  0.387906006130835       -2.46400447715854       -1.89295301410057     
          81           1  -2.73693496964336       -1.52632564983471        2.02502169594187     
          82           1   2.45547568965216      -0.569550958036072        2.69322193187861     
          83           1 -7.537374777464724E-002  0.930158747861901        2.77688359332287     
          84           1  0.517548131640613       0.827267773233245        1.73427354022995     
          85           1 -0.578632597936484       0.972626964716331        1.89143899665965     
          86           1   2.15439539837203      -0.218699391178836       0.890787996745639     
          87           1   1.03961608404152        1.58547689497018        1.15296824291021     
          88           1  -2.59295673392622        2.41792633807068       0.876461832341291     
          89           1  -2.51619384207703      -0.888163896769583       -2.06367224831219     
          90           1   1.61744890538236       0.170984632528040      -0.281435600577520     
          91           1  -1.14504992035081       -1.06782588816496      -0.414668394420591     
          92           1  -1.96674177786161       -1.73164042204740       -2.37092209381469     
          93           1  -1.50066878105033        2.78726114954492        1.19996063114296     
          94           1   1.31360823749851      -0.681220459073511       0.585367609314491     
          95           1  0.317503676612871        1.54073027491779      -0.608466195261990     
          96           1   1.06046407382640        1.00764235397905       -2.68545997430850     
          97           1   1.80688472983459      -0.288079798117612       -1.28350921767616     
          98           1 -2.064018653855311E-002 -0.731901666265877       -1.30813703441996     
          99           1   1.46916074710810        2.39892354146901        1.81121218020094     
         100           1  -1.13125287461967       0.775571187637355       -1.00743347611445     
         101           1  0.136386787602428       -2.28826772181962        2.50117594927802     
         102           1   2.28842399100607        1.75987777647649        1.41779333247278     
         103           1   1.59327324973079       -2.61509124414020      -0.127047743649365     
         104           1   1.79688081428886       0.601994207352145        1.39719127445479     
         105           1  0.182305593862656        2.17621848014839       0.331953270874201     
         106           1   2.61157369951358       -1.93482048212159      -9.626635652875543E-002
         107           1   2.27477921435633       -2.63253195475211       0.679115382588482     
         108           1  0.346623696740236      -0.150226716197858       0.509063426922530     
         109           1 -0.999449839788230       -2.24506475563153       -2.81600717157257     
         110           1   1.01077504274766       -2.36293128272777        1.95738745303722     
         111           1   2.76354868648496       -1.27708983557691       0.827989836630338     
         112           1   2.78821609728208        1.47583108210174       -1.94221793600274     
         113           1  -2.46344297686296       -2.28457379861590        1.22221031992481     
         114           1 -0.852193341447551       -2.02783644065584      -0.660749509485032     
         115           1  -2.43463929405191       0.757733495405939       -2.83590600375326     
         116           1  -1.41111454349338       0.614850753785894       -2.82571982705413     
         117           1   1.07732954231602       -2.27205124467840       -1.02049841346327     
         118           1   2.59371943456201       0.476840461975133        2.05229548675601     
         119           1   2.40198351212203      -0.807414998555425       1.785435797538928E-002
         120           1  -1.03858097144707       -1.25549273094115       -1.86033077224829     
         121           1   2.47495691189334       0.681437560881108       -1.14484524067085     
         122           1  -1.91669661358414      -0.959460664270954       -1.22351212142924     
         123           1   2.83390977013746       0.841278987033850        1.01800146031405     
         124           1 -0.195804866649296        2.78283809334745      -0.558072659367154     
         125           1  -1.03941965304571        1.01351820704073        1.00950793638856     
         126           1  0.769218544804512        1.34855802606640       -1.55601327132722     
         127           1  0.835123645296463       0.241877482514107       -1.19402600134222     
         128           1   2.15115696336373       -2.71225190450649       -1.22651119334470     
         129           1   2.24224649557642       0.786379356411309       -2.71317139232646     
         130           1 -0.270537084652245       -1.57777688697639       -2.37105909759582     
         131           1 -0.821467947771722       0.539567519266565       -1.99032518406862     
         132           1  0.185821225452854       0.331425043210826       -1.94375048670136     
         133           1  -2.53418543582950       -2.66923166532031        2.76748641156410     
         134           1   1.36162105051093       -2.60710817116174       -2.31707293266789     
         135           1  -2.33317954769242       0.827795779881799      -0.597809488239524     
         136           1  6.459023020399993E-002   1.68685290155780        1.35778044100972     
         137           1  -1.31410917742186        2.41069551101065        2.64985931745933     