ITEM: TIMESTEP
 0
ITEM: NUMBER OF ATOMS 
         267
ITEM: BOX BOUNDS pp pp pp
  -166.58292783420666        166.58292783420666     
  -166.58292783420666        166.58292783420666     
  -166.58292783420666        166.58292783420666     
ITEM: ATOMS id type x y z  
           1           1   45.264135301573980       -123.76673876287944       -19.677987221077458     
           2           1   165.14416459708318       -142.49953025679778       -113.84348167629885     
           3           1   119.64506947850188        51.324662909348149        1.7020585628676905     
           4           1   36.474002836218730       -47.393476795986089        83.254746746920318     
           5           1  -90.135526194892506       -47.396488322023387       -6.0595604072138958     
           6           1  -72.973319484149656        124.46800803810824       -10.716903117618301     
           7           1   86.794664099300363       -87.608868352870203        20.885654797969405     
           8           1   59.120704941597253       -23.982080743110664       -127.77167273117975     
           9           1   153.74204746152213        150.84294658470827        9.4602877859585188     
          10           1   45.300718407931264        138.70457058007688        69.167785713709534     
          11           1   153.48095829147650       -158.10081523062831       -11.133384797270232     
          12           1   80.404092364752870        20.030204611321039       -20.142282861124489     
          13           1   59.787067844279228       -87.703694219671732       -122.95223701457554     
          14           1  -4.8216713578505530        21.317894150725195       -6.6009984625726190     
          15           1  -137.19126887342946       -56.929858327258714       -101.87197457417398     
          16           1   157.65588223508578        103.01430457412273       -15.101524706260133     
          17           1  -149.12643942891665        159.88533317544722       -28.422373452126720     
          18           1   164.12357679873563        2.4600203280970239        40.663687228935508     
          19           1   21.112428401133883       -50.264465161869197       -29.703378715509054     
          20           1  -26.082416967734542        115.49886317009816       -64.242738892537332     
          21           1   27.331065663845894        15.783564489696337        54.521706190125336     
          22           1  -109.59727385923946       -110.69971839795774       -51.383937535952725     
          23           1   109.44160588737671        53.565287777952911        32.500567224293903     
          24           1   138.70507407677184        43.891822844343650       -66.298230126599108     
          25           1   76.108633191906421        69.554086951719185        19.785316851494649     
          26           1  -40.844902850615128       -96.958081234605331       -153.03818608384753     
          27           1   98.493108780794898        27.108097566133534        99.837028823316061     
          28           1   60.315089935212164       -22.792616070342159       -53.742783299407172     
          29           1  -60.349204375569670        35.603133199418508        118.21192986411801     
          30           1  -107.43875870216903        67.079259183543058        162.22857327356317     
          31           1   101.57739780171318        86.554756803120895       -35.573051827834469     
          32           1  -154.40283338181166       -163.20754165118655        148.17601440788303     
          33           1   94.633482284988943        33.459459772995679        83.490103487003182     
          34           1  -97.786421957238929       -68.966721885409640       -67.589247719226535     
          35           1  -63.373426075725703       -116.35361608970591       -130.77555413429292     
          36           1  -75.081156496637789       -10.246711523905432        79.400215243726038     
          37           1  -132.87925216292632        154.73853396312040       -119.14404558005359     
          38           1  -52.881054333422576        15.716024645912649       -152.37675127520575     
          39           1   77.875864428918788       -11.121488434080161       -84.684413392771731     
          40           1   115.48264375041840       -15.769613646976774        150.38650307837523     
          41           1  -150.00654160373233        35.792703134810012        68.344144865235705     
          42           1  -67.759586176080461        93.116616769430962       -145.28563138092423     
          43           1   92.798482907495853        31.300753717999058        1.2675825352511458     
          44           1   163.74614541855354        80.538758823690301       -77.855310310226983     
          45           1   72.877778804717778        40.244481844080035       -134.97987912703934     
          46           1   67.236133145037513       -106.33554921510887        117.30615480420147     
          47           1   132.66934438865849        51.555367325039192       -147.28112402536684     
          48           1   68.613728143358131       -118.18002900067043        115.33692466727314     
          49           1   94.841561033854461       -138.13620937109104        40.978803713904455     
          50           1   7.8892852462194059        122.82446501684899        12.788541625401262     
          51           1   29.937208289147645       -63.991307719802855       -103.22655751968865     
          52           1  -97.431535920064150        111.40848731692459        50.171825882983399     
          53           1   28.090344820988285        78.131142082307719        109.04381444395231     
          54           1   163.07065205777968        135.35601138875916       -57.351012349638658     
          55           1   106.56866379536599        69.640647673462169       -69.421803560262660     
          56           1   47.877579599217910       -44.811616028439126       -105.04210714406854     
          57           1  -149.25747500752041        92.850491375512547       -2.7062839445900302     
          58           1   41.447134423068441        51.218594886988612        3.8281894675473316     
          59           1   104.62891354176534       -26.520244518509919        64.647586693244705     
          60           1   139.17878343085073        76.761609071038734       -7.7034097202558609     
          61           1   139.15016561826991        125.07492598584169       -7.2707687184997081     
          62           1  -110.18716508036677      -0.74408960571193039        5.7695466921334333     
          63           1   38.848781068125568       -5.5335629252860397        86.419870765812774     
          64           1  -27.676779805290270       -139.32701455803993       -143.07026115479579     
          65           1  -35.138046653127304       -150.87810308793527       -88.080171483070686     
          66           1   64.589019208964899        91.996207865586570       -124.96775445724990     
          67           1  -146.90582205055429        128.11203276704362        89.741558378152149     
          68           1  -123.26904017242256        166.28494315206453        150.05516183564504     
          69           1  -122.30570410316753       -133.14882963459280        111.57752956555130     
          70           1   21.141383435898575       -55.718230485806863        43.421606354945254     
          71           1   68.269515635840648        133.30115580480114       -48.258390297018764     
          72           1  -114.02316195718301        162.18293337965684        61.292622823302274     
          73           1   17.691090203899979        78.844196793003121       -91.076102811106637     
          74           1   158.76584802291021        154.30509750211536        20.553039230714926     
          75           1  -7.3078944689562038        71.908816170762719        29.832371579096936     
          76           1  -45.275367274506486        121.36030043176790       -37.320262839642105     
          77           1  -80.086609853274908       -53.526266784663925       -63.625004714406174     
          78           1  -69.975355704129527        56.390790963636583       -79.006296195075251     
          79           1   87.192511822744166        131.60880239535629        57.723321826703419     
          80           1   159.30934296707591        30.015142796092579       -128.53889027601463     
          81           1  -78.057906635777996       -85.639698898347831       -105.47531278239317     
          82           1   95.205579837737957        137.63324297890443       -116.41452950485173     
          83           1   155.92465162569721        121.30483919461932        80.825264714064772     
          84           1  -122.15392356075080        159.33719426553435       -46.779800779222825     
          85           1  -13.587979364620166       -94.023868998621651       -57.504230668274069     
          86           1   77.107847242514012       -165.04368769635977        93.863904134067155     
          87           1  -94.464534516975533       -76.788233936693189        127.92504599108220     
          88           1  -18.988412643454154       -164.51519355687662        53.937676268061288     
          89           1  -68.277581537403307       -104.06895179659450        65.180187871966069     
          90           1   82.527102113430971       -59.734280659015923       -96.288338242037952     
          91           1  -88.637091621531980       -114.99947203446060        52.865124634622831     
          92           1  -113.21703370345791        53.551985925853586        84.446893665301232     
          93           1  -138.78069563300193        133.14117605424306        92.656946210223651     
          94           1   35.279170561504039       -38.069752765678757       -48.747228612887945     
          95           1  -37.655522409148311       -6.2003735276542287        128.17368474594164     
          96           1   73.365445470636189        115.42753407735192       -114.87262313575388     
          97           1  -143.16193049793185       -4.8715727101550153        42.237665488889519     
          98           1   120.68646912688997        7.2158444921062070        162.83706022189696     
          99           1  -126.97064570248959        13.633175341749979        118.10064034606845     
         100           1  -60.394222186055345       -2.9676304701991998        137.71454769464845     
         101           1  -46.579013704436107        29.532587581322449        157.87529548776391     
         102           1  -111.57045315708390       -95.949529568834123        152.33008200678464     
         103           1   3.8966151671575684        82.818752332610231       -131.50691966078352     
         104           1   130.35821610516624       -50.686769927575192        41.977909921833593     
         105           1   100.12217203939468        52.625320657071967        3.9286858111698262     
         106           1  -23.007652919614443       -27.477188725194399       -22.411828864617640     
         107           1   15.876647111896258       -92.447157570116232        159.46454213720514     
         108           1  -87.073150227888959        163.09535323674075        102.28934707540125     
         109           1   2.7223450671303180        150.71781978437002        55.343312459169162     
         110           1  -26.339155276585359       -118.35494470909089       -127.00581674398785     
         111           1   78.529701632848329       -160.26668106042470       -88.585536243303892     
         112           1   64.627929057367794       -33.390773507058775       -45.396143592155425     
         113           1   57.180234973681543       -31.317772844718739       -109.93738561927819     
         114           1  -155.43536384007297       -77.306813943533399       -98.178030929979528     
         115           1   52.326416853516307       -17.463916732067037        156.66016413270503     
         116           1  -115.58720907129296        155.30542163922271        126.77669551864422     
         117           1   69.965757660386814        48.057587075248300        41.754018663648345     
         118           1   150.17468316821990        86.131870991164590        45.025794880938115     
         119           1   126.34082926053713        54.853262594505672       -159.87326759638790     
         120           1   112.40434656191040       -44.302784278853530       -24.317649796752580     
         121           1   89.289126185932957       -61.368665402292848        80.038115043005561     
         122           1   14.021541227969017        36.186266191917071        88.353771482321974     
         123           1  -67.637624903254576        120.88351036743336        107.86853868488143     
         124           1   71.362395856744797       -157.04513049613001        164.27793486993843     
         125           1  -36.953220773296373        65.288362156643998        27.947861234192906     
         126           1   59.935837015153155       -137.77592686640440       -85.880363714643167     
         127           1  -70.141120886501284       -111.74905442538291        46.319961931568429     
         128           1  -96.776742550737140        91.831093925587055       -117.12941836939086     
         129           1   37.235612529691252       -20.615271040379348        123.70014330298203     
         130           1   38.282076559411159       -34.082474082909648        161.92301299289565     
         131           1  -65.492479073917153       -108.51993524708082       -115.09247046501517     
         132           1   147.20216298723631        41.803159358133271        48.231897161136764     
         133           1   156.53457190870560        20.811050025494591       -5.6718098224051969     
         134           1   111.80990544961932        30.289118539622983        22.325929164099520     
         135           1  -115.22938762032356        37.317111367544065        62.384518994424013     
         136           1  -104.32695723164503        122.01024976324429        52.067766114184380     
         137           1  -49.684999127819637       -115.72790570629627       -13.330273331615725     
         138           1   164.94939649488467        135.28054615680031       -47.068868482930014     
         139           1  -47.954744729757998        124.97014887106961        128.29220860556492     
         140           1   125.33286751912468        78.386839703175198       -147.35911110761316     
         141           1   152.44910411176357        158.47154546460524        110.74062267375962     
         142           1  -34.095544359252230        159.84802781531212       -55.257009206274887     
         143           1   15.946347325961385       -12.235706536021764        131.87325284337146     
         144           1   88.711971974879276        147.33442001487467        51.808286133728799     
         145           1  -75.863190169512563       -8.7745310445831439       -41.813696004129511     
         146           1  -104.99348119425287       -38.681302438720905        23.094322664632337     
         147           1   55.323386831544546        40.318440736512777        127.55890301005513     
         148           1   12.887040085056700       -31.149808931180672        37.336678041107184     
         149           1   146.13938708869441       -45.288360817235741        42.919164612557587     
         150           1  -129.71725746639453       -31.235093615458556        65.429729533155438     
         151           1   50.730679060703707        18.744331957848281       -118.35734433307694     
         152           1   149.18355172268139       -4.0282382063287656       -58.291719573420728     
         153           1   16.400753609001164       -129.23075918763624        112.90916577366593     
         154           1  -84.624066147629833        57.201920091145766        150.57160406582440     
         155           1   63.508909065711975       -132.87150676176509        155.66630548376344     
         156           1   14.936934353717501        55.494849017619828       -137.06982924799797     
         157           1   39.737287712899217        14.321367497074283        33.172149092759980     
         158           1   101.46592116561698       -4.8757735335305865       -20.190961933789897     
         159           1  -136.91322202426295        3.0061505933532486        91.577229935426232     
         160           1   43.865627739547847        48.795508927613326       -38.583268992195414     
         161           1  -129.74458260323141        10.657306625052099       -125.60954697390645     
         162           1  -101.55098101053568       -103.68527104272937       -35.739470815811032     
         163           1   48.371486091326290       -131.72170238502028       -71.433883492384950     
         164           1  -83.687532899456883        103.17254666926861       -156.57328779519273     
         165           1   7.6205582081873970       -85.164845338978481       -141.18737861839583     
         166           1   161.58134315669406        23.119557715271224       -113.33685982367899     
         167           1   61.346671840159217        139.32783921427358       -9.1846007278235753     
         168           1  -36.610625091657333       -114.11383430943873       -120.38165331732503     
         169           1   92.039165841635054       -53.048658291458672        102.61261119957807     
         170           1   143.23060878723740        92.706584315958708        163.32718374741370     
         171           1   128.60106289586977       -101.38961883300010        21.884508633108034     
         172           1   41.517697518053325       -35.735104364596943       -57.764230272331567     
         173           1  -153.79098847820512       -120.09077823385269       -137.55240186133926     
         174           1   61.141920346212750       -95.325889455115856        50.847592225139785     
         175           1  -145.10558521937688       -145.12422983387589       -108.97587719969889     
         176           1  -96.191295327319082       -85.754381788727159        108.35920989173255     
         177           1   138.03295013535350        50.492885731888848        103.36020979720996     
         178           1  -77.067986999291250       -129.28725589676941       -96.344538681024602     
         179           1  -9.6440858835545651E-002   16.452562830375644        12.927778383140030     
         180           1  -14.642896029834255       -90.272180537505363       -88.578426718886575     
         181           1   114.35201505062311       -34.998305323989079        96.182302374689996     
         182           1   92.339194522040216        80.036463353679537       -97.497490946909494     
         183           1  -12.988018109031270        139.55318297591202        28.440067445311865     
         184           1  -91.159504909526561       -164.78654395449399       -80.295473961573279     
         185           1  -45.755530198189895        158.79586233178253        40.295711796363811     
         186           1  -119.16136064806412        103.52095448418360        146.14590022888518     
         187           1   73.063251829160578       -29.915782058004115        49.621729753590564     
         188           1  -7.7629952167211718        143.36057337816248       -84.121316742990771     
         189           1  -57.092256915873790       -129.11043978462473        126.06990663538376     
         190           1  -166.38999434227122        52.911839274633230        1.7963341827290673     
         191           1  -164.78365598659502       -9.3361245819121201        82.482471358599582     
         192           1  -70.946399440385619        122.47123452056346       -96.674306685908491     
         193           1  -40.212024337549053       -6.4432791714447184        71.930446154753582     
         194           1   73.574850126677092        147.41462921693483       -140.17152636510588     
         195           1  -111.21932901488917       -91.767412872992779        40.983555535843244     
         196           1  -58.766962483904372        132.96419583459939       -18.382041904163128     
         197           1   93.169921600049037       -63.351590851954292        102.42014139870520     
         198           1   137.56266993068081        98.671209542456793       -22.921203536005521     
         199           1   100.87604568807551        143.89204478815574        44.355755517306598     
         200           1  -108.20963674986071        89.831379764465851       -96.486153084030079     
         201           1   108.59448058888572        16.064031943030834       -15.410979707475027     
         202           1   110.03244039328693       -23.056689847165689        40.246791281217028     
         203           1   63.874725381170130        18.015502125604812       -144.34605701828147     
         204           1  -152.09770393483544        60.745877640147505       -141.84018965137861     
         205           1   36.544543315532778        82.032416532684536       -125.07241668364213     
         206           1   95.626660525673614        29.426385553841829        15.613451156839444     
         207           1   143.18066907637535        155.69929488523667        88.309221921600724     
         208           1  -105.64629364900004        13.353357202823419        1.7441413126704517     
         209           1  -102.39880968391540        47.841537427214945       -92.416601900296371     
         210           1  -109.24738894958500       -99.951001847274782       -67.448373654877059     
         211           1  -143.88600894746546       -87.915906340632034       -108.41397422851084     
         212           1  -21.589452134381023        74.729441326726828       -71.508733209648142     
         213           1  -89.415359774104132       -84.991409039949048        19.637418536270069     
         214           1   10.414484028447273        42.025102133028689       -35.421689125657622     
         215           1   113.62984538344011       -160.69589331432260       -36.873745300494875     
         216           1  -48.040373564791715        26.265471164380813        158.22289784818244     
         217           1  -8.7384880086455858        48.033112992003069        51.726794782410252     
         218           1   57.500479279334279        96.192487053807639       -7.2831133932137320     
         219           1   20.812057900413993        30.759513357523574        10.786881949897769     
         220           1   44.189356166147121       -133.90679081189217        56.443356684779999     
         221           1   136.81961397375048       -102.53202143923922       -122.05714679834715     
         222           1   147.11046684713912        147.59566954220094       -164.60313202817869     
         223           1  -62.427712209704019        140.18889988061343        126.81370037005824     
         224           1   139.38953819100689        10.065091054781174        20.696273839511040     
         225           1   136.61768479298038       -89.943981377053461       -9.3355662606454004     
         226           1  -127.22958967982687       -56.578894921667015       -148.76990001749215     
         227           1   164.40658259949868       -54.860895039117580       -136.49223571513491     
         228           1   62.931662991913626       -31.357259973914129        65.771361732225358     
         229           1   14.393962987919188        159.95542495911997        90.887962805897203     
         230           1   103.25695114508054        93.195046537545295       -68.752894552790778     
         231           1  -155.37388119060606       -80.881947904954217        54.815956528472526     
         232           1  -77.669391852707278        24.925879555939328       -98.782489416364172     
         233           1   154.74434399957195       -146.61296233741834       -6.4400433731703526     
         234           1  -98.946790335693919        15.717412968663982       -105.26987949832981     
         235           1  -58.742863135113716       -89.466914708102308        46.085554643541627     
         236           1   75.021714533415391       -166.41848409582499       -29.223437469995314     
         237           1   40.373700220221330        41.319034108168324        138.73245775732300     
         238           1  -83.192053289748330       -61.908558377756805       -159.97847637649863     
         239           1  -83.977534075607664        140.70270701543876       -157.43262670054875     
         240           1  -112.46629283182651        52.659008008847771       -12.219900907702666     
         241           1   37.138574095220086       -30.738290157601579       -81.607525762974888     
         242           1  -77.617915480177444       -117.47020335946178        47.158074585928745     
         243           1   135.88551508307157        14.668318661143166        146.86355664594740     
         244           1   141.53137789228742       -131.19075203944695       -11.139706069373233     
         245           1   108.80284737866933       -61.735604649374984       -54.569484098378375     
         246           1   112.84951517807934        50.367132397335624        17.341381783627195     
         247           1  -38.989874447114850       -78.179546716671226       -142.13671332133231     
         248           1   95.304646711077893       -71.597032090140388        155.34345504458497     
         249           1   161.28656229781203        107.34585509617615       -133.53404510748393     
         250           1   12.568433114746236       -134.68453400767450        88.032330839619220     
         251           1  -162.94343818666607        21.948092775495269       -91.668905595812049     
         252           1   34.798967935629648        93.277711996336109       -66.913970261201371     
         253           1   48.890517188489468       -156.03993846732234        44.993175347596612     
         254           1  -21.236205703369752        103.73939191592241       -14.052502006199630     
         255           1   98.196821077627632        99.718029930691870        36.669408773792846     
         256           1   13.441972394675721        165.25152602906047        2.6628099863044046     
         257           1   31.449534479638398       -123.10480457990376        57.418413204846516     
         258           1  -123.53333235642445        98.517696536360006       -136.80341443178978     
         259           1   43.031674927481887       -131.70415664051791        138.26924161471845     
         260           1  -133.45235508885830       -66.978364383889428       -99.390463041072778     
         261           1   142.91953173619797        81.159534345593130        148.79108789820853     
         262           1   70.515955438563438        33.334519837918926        59.072235804292696     
         263           1  -142.75871550212716        149.19894418270425       -46.905114652997042     
         264           1  -132.61205081301793       -107.67464726207018       -38.576063387011828     
         265           1  -25.721304943044178       -28.254294693240446        146.02314178762404     
         266           1  -45.920820344346460       -126.33117332576519       -88.914075965896657     
         267           1  -49.413975164652896       -63.762356729414400       -14.325514771317662     
ITEM: TIMESTEP
 0
ITEM: NUMBER OF ATOMS 
         267
ITEM: BOX BOUNDS pp pp pp
  -166.58292783420666        166.58292783420666     
  -166.58292783420666        166.58292783420666     
  -166.58292783420666        166.58292783420666     
ITEM: ATOMS id type x y z  
           1           1   45.035904750754284       -123.26297919069000       -19.234091745557659     
           2           1   165.89385420742485       -142.85311617373353       -112.76052505986435     
           3           1   120.20458696030835        50.903755640652875        4.4162434954444088     
           4           1   38.856662629102594       -47.306900134737759        86.706489944113684     
           5           1  -90.482593492129453       -47.956792163354983       -5.8435489399320399     
           6           1  -72.770099517915256        124.38887312318303       -12.205133672283438     
           7           1   86.280313607401411       -89.461109655608539        20.951140882753077     
           8           1   59.403069925451604       -26.806436383432032       -130.52028092257999     
           9           1   153.80597784985153        150.20977886210213        7.9315760592957378     
          10           1   46.569843606351327        141.06419685915853        71.022077970511930     
          11           1   152.15420107482998       -158.42717649384517       -9.8340266639070606     
          12           1   80.851656571849816        19.805501438428433       -19.839733060207163     
          13           1   62.342723275544557       -89.221384839949124       -123.05833293610239     
          14           1  -1.7590508893308041        24.205463795794600       -4.1968931659059452     
          15           1  -136.05239946175479       -57.033255299889255       -103.13964143786038     
          16           1   158.79393147403309        102.79225229396737       -13.649328073048906     
          17           1  -149.22195169202038        159.02404757897489       -28.786992796565858     
          18           1   163.27730188030972        2.1065768222361991        39.963445325144498     
          19           1   21.043281989353165       -50.792187390398610       -26.961570119212283     