ITEM: TIMESTEP
 0
ITEM: NUMBER OF ATOMS 
         167
ITEM: BOX BOUNDS pp pp pp
  -2.84960420785000        2.84960420785000     
  -2.84960420785000        2.84960420785000     
  -2.84960420785000        2.84960420785000     
ITEM: ATOMS id type x y z  
           1           1   1.86387753977391       -1.39735498714804        2.46929616088823     
           2           1 -8.662379242254384E-002  -2.16437304649849       0.273587904919199     
           3           1 -0.208456332886593        2.73948267416238       -2.60088810602955     
           4           1 -0.302233451460650       0.461876755521953        1.78964965240430     
           5           1  0.697601794966163        1.43981713235123       0.300375662714125     
           6           1  -1.24164536157086       -2.58017907357610       -2.36660992502602     
           7           1   2.33956987758194        1.96080156199341       -2.79036455672771     
           8           1  -1.74179586799563      -0.198252553030709      -0.209421929759197     
           9           1   1.01009618598295       -1.27136168841317        1.46843998651972     
          10           1   1.73220539897857        1.44121010384047        2.38236223765816     
          11           1  0.110756835556548       0.402741107009555      -3.734074300081051E-002
          12           1 -3.224115492949538E-002   2.18509704154630       -1.31456321403221     
          13           1  -1.35017757583213        2.07992527825722        1.23666315528281     
          14           1  -1.85565259578364       0.135381264452541       0.907978693796781     
          15           1  0.639740425743153      -0.170009099415838        1.62843664416646     
          16           1  -1.16208735982325      -0.179000859185434       -1.12020544162095     
          17           1 -0.961431734686923       0.441991460486307       0.128430837016857     
          18           1  -2.68889749430200      -0.232238572452200        1.50689486230599     
          19           1 -0.943716194764111        2.24094882012717       -1.79870747244426     
          20           1   2.56796510931152        2.62974625751180       -1.95715327428115     
          21           1  -2.75779552867631        2.49541300681624      -0.179614342450217     
          22           1  -2.84377891722733       0.259066152183436       0.275910929665461     
          23           1  0.302079187354414        1.82624791820256       -2.35256194927448     
          24           1  -2.66263917708007      -1.944650836987291E-002 -0.709443425052346     
          25           1   1.99439764880434        2.22409767342841       -1.04628345537340     
          26           1  0.305232766754908       -1.17392412079439        2.64316352834816     
          27           1  0.651834384362612      -0.741927291439866       -2.22859304419875     
          28           1  -2.35570038744565       -1.08458390372247      -0.227858556199326     
          29           1   1.31827815209074      -0.274209663333540        2.35397959661240     
          30           1   1.76985771368576       -1.66920075577955       0.706418373691972     
          31           1   2.34317864186264       -1.20018274887893       -1.06668131638270     
          32           1  0.301944843304342        2.62866571750168        1.85636876327723     
          33           1  -2.03274404944425       0.937371838374191       8.612072735842516E-002
          34           1  0.520009885203075      -0.709410669455445      -0.608353448115902     
          35           1   1.69574219357568       0.871248893483095       0.265566282087770     
          36           1  -2.14595820893346       0.283529763866896       -1.76258909040907     
          37           1 -0.956182216267235      -2.043548520725729E-002   2.52676523348810     
          38           1   2.81591331754766        1.58277661148037        2.01017463450307     
          39           1   2.34709107122755       1.344921903967598E-002  -1.52778200228104     
          40           1   2.01792321522725       -2.13053568034748       -1.68033753472900     
          41           1 -0.981379144266941       -1.38921180988364        2.47219261132957     
          42           1  -1.18175292599833       -2.05370682528674       0.443215609818945     
          43           1   2.63980437985133        1.45698035430865      -0.105680495996790     
          44           1  0.986018234714831        2.30574346881296       -1.47311843769034     
          45           1  -1.04279776228623        1.71387216824821       -2.71130657188336     
          46           1  -1.57029775204355      -0.830302746316180       0.679376445766029     
          47           1 -0.623542994377989       -2.51281439877618       -1.59935519661341     
          48           1  -1.79872437744734        2.74517860645512       -1.36836990992521     
          49           1 -0.384478369731311      -0.816307959822077        1.78313155469280     
          50           1   2.55213586416266       -2.49620497634446        2.80456543796380     
          51           1  -1.88461883353535      -0.886753257374838        2.45237022191828     
          52           1  -2.19020954172884        1.76986820905347       0.583728395250976     
          53           1  -1.85298182994608       -1.98275596348056        2.31139853378578     
          54           1   2.08949062990353       -2.14892077255290        1.64741665502468     
          55           1   1.64315306854899        2.60006141604036       0.866270776027808     
          56           1   1.47738767835314      -0.264652757122751       -2.06893654717516     
          57           1  -2.73046454242404       -1.40939142248100       -2.72515726487707     
          58           1  0.888851720703739        2.08640284643861        2.62927824280507     
          59           1  -1.78312729463935       0.554838580573733        1.91302712502886     
          60           1  0.190835811665437      -4.312369500253883E-003   2.60401862408844     
          61           1  -1.10431514915943        2.61863687251044       0.338865047809320     
          62           1  0.954925472626508       -2.33536263995790       0.174432678727438     
          63           1  -1.52236121220973       -2.01735939247476       -1.40192309177775     
          64           1   2.03493015259578       0.435123065554844        1.92871190755674     
          65           1  0.893971773266844       0.449158837373921       0.799209908168423     
          66           1 -0.943321917147767        2.51799655308140      -0.800398717591762     
          67           1 -0.612303273601917      -5.501133508134164E-002  0.920853640082249     
          68           1 -0.389546238934213       0.548584376249696       -1.01889667213088     
          69           1   1.12936176087330       -1.46110976152500       -1.54766646619833     
          70           1 -0.499119747170012       -1.17217046067482       0.668237659137928     
          71           1  -1.90757160002524        1.92438585945323      -0.459845802941275     
          72           1  -1.52376028517466      -0.411054652658405       -2.23271012869914     
          73           1  -1.10778238077645        1.55665317404187       0.268865263884139     
          74           1   1.45050826454762       0.772499214623495       -1.69319731451524     
          75           1  -1.97672450532269       -1.23406656021604        1.52838688611306     
          76           1  -2.03593208629872       -2.35995448655730      -0.513055321580609     
          77           1  -2.73214953094474       -1.78235347017000       -1.65247541382527     
          78           1  -2.32601755791035       -2.45669607847537       -2.29319383653981     
          79           1   1.29326088836534       -1.40159425014841      -0.448342194360183     
          80           1  0.484375060904317       -2.64029178451248       -1.83546770264550     
          81           1   2.84844021519080       -1.39317568721199        1.94674605690586     
          82           1   2.42121235325418      -0.427514293149442        2.43315635289244     
          83           1 -0.279235614266064       0.906539399512230       -2.78571435140716     
          84           1   1.11967567661420       0.846982809700881        1.78829765489462     
          85           1 -0.955207007452778        1.15566931241989        2.12044729509406     
          86           1   2.10491666677761       9.540676070021277E-002  0.907303052235675     
          87           1   1.05819435449792        1.86672729255602        1.55850903870877     
          88           1  -2.16726613652549        2.77777973103618       0.599985251626348     
          89           1  -2.65128012285114      -0.654290246460134       -1.92885206340002     
          90           1   1.22874828367023       7.820345039678545E-002 -0.258032841802197     
          91           1  -1.37332529976160       -1.35404251548194      -0.401163524596754     
          92           1  -1.77968007980124       -1.47563461678823       -2.42041728558394     
          93           1  -1.55683347247382       -2.58677606973688        1.46068997271878     
          94           1   1.44677631692976      -0.614205031684904       0.551260077549877     
          95           1  8.104727906156881E-002   1.38293911760212      -0.542038805633089     
          96           1  0.942603212249271       0.950954913306468       -2.76786032738419     
          97           1   1.49190644673991      -0.548026099011706       -1.02811867047084     
          98           1 -0.164494296358745      -0.384908301217027       -1.41487580408544     
          99           1   2.25249758002466        2.48156979520588        1.78522558564186     
         100           1  -1.60122298833384       0.672182080075624      -0.888275208729232     
         101           1  0.337308000258757       -2.21137220976124        2.41677081243208     
         102           1   2.55632895313361        2.06443560872768       0.773381493693410     
         103           1   1.88351920239346       -2.73990001969624      -0.228529547876908     
         104           1   1.98343764868153        1.30730924291188        1.34728192155124     
         105           1  0.583852307105135        2.45973504959374       0.689559519856912     
         106           1   2.57531687847556       -1.73028670423865      -6.559881054565356E-002
         107           1   2.43831008272514       -2.50395988817729       0.800403882179933     
         108           1  0.303160104500609      -0.369964203469428       0.571514861575281     
         109           1 -0.457012837815174       -1.83090361081601       -2.36230919873375     
         110           1   1.39617459947935       -2.56279735573265        2.28402371215768     
         111           1   2.82939592281719      -0.906222182981773       0.691988252675138     
         112           1   2.46074006626369        1.14542638268227       -1.67196747117339     
         113           1  -2.16798194365519       -1.82805180832174       0.539971245100432     
         114           1 -0.901560773476766       -2.24868779174300      -0.557812571812767     
         115           1  -2.56297140228322        1.31158470081533       -2.53751430900062     
         116           1  -2.38645263532818      -2.476200985485938E-002  -2.73846217905044     
         117           1   1.11818875748166       -2.39478916878224       -1.00788027841010     
         118           1  -2.75218151314065       0.633390054526794        2.18076448565193     
         119           1   2.22792642028054      -0.639779258358078      -0.107455325652429     
         120           1 -0.908944083461934       -1.14521197624485       -1.54045671910997     
         121           1   2.15670076538989       0.486465688956353      -0.720869253513249     
         122           1  -1.98072793852546       -1.04218636987006       -1.25188339353527     
         123           1  -2.58472954165718       0.931452170535261        1.10455723461959     
         124           1 -0.161240666958053        2.26330204939092       5.501795679411822E-003
         125           1  -1.05300525222139       0.929751265561299        1.14091974923055     
         126           1  0.456005736761210        1.15676305114375       -1.51256694804744     
         127           1  0.702099617752646       0.272270326859034       -1.02959928581761     
         128           1   2.71218217773992       -2.69262070742220       -1.02304963669804     
         129           1   2.14305078772225       0.737448472552099       -2.67997759829915     
         130           1  4.133402791837121E-002  -1.57744710554225       -1.52004360088210     
         131           1 -0.814513775734603       0.269608122858661       -2.08442909546654     
         132           1  0.444347253975224       0.289660553843739       -2.00009416136695     
         133           1  -2.50001271859882        2.50426194889374        2.50872688100733     
         134           1   1.61312789246547        2.73217892877750       -2.38131532860741     
         135           1  -2.55596654263750        1.11013221447885      -0.913524762146140     
         136           1 -0.340580207801323        1.89480975975312        1.09532262423919     
         137           1  -1.51998445198167        2.59118110536531        2.40566091365082     
         138           1  -2.56763725855099       -2.36467275159595        1.60006102844796     
         139           1 -0.755376280674187       -2.36809389720512        2.22891729522459     
         140           1   1.12753850194540        1.22331689591189      -0.685359936926769     
         141           1  -1.99058812409782        2.26531294394847       -2.28634388128301     
         142           1  -1.60989516489978       0.766396713583547       -2.68150337900389     
         143           1 -0.605059843128318        1.23622762199967       -1.81396168450751     
         144           1  0.104521692274582       -2.54136752835087      -0.609663089695083     
         145           1   1.70155957851010        1.95383397535114       9.043604319080613E-002
         146           1   1.57298499804386        1.61794310566461       -2.24194758864296     
         147           1 -0.697644424030585      -0.547922572543981      -0.122746881720278     
         148           1   1.10226033898817       -1.69317261983151       -2.52407256552014     
         149           1 -3.423676133982045E-002  0.900201908190827       0.784751984942902     
         150           1  -2.36516742897635        2.26664124142237        1.48033989727828     
         151           1  0.935852424026834        2.29395828861897      -0.454962340111889     
         152           1 -0.866657217588111        1.38146536434490      -0.878206898268410     
         153           1  -2.67047388536935        2.03381287670747       -1.19632086241476     
         154           1 -0.187847597707153       -1.44281264566829      -0.466949459850919     
         155           1  -1.05053229364181       -1.65353489634212        1.45260622746701     
         156           1 -0.464625763341595      -0.670429056238653       -2.45769437230995     
         157           1 -0.472287835516485       -2.63616236806013        1.17946274910807     
         158           1 -0.552084766527809        2.23946383361393        2.19528319846080     
         159           1   1.88782358045062      -0.652650543556595        1.58247950941220     
         160           1  5.691371785622023E-004  -1.76664887182862        1.33117877530992     
         161           1  0.568555089193251       -1.38823071098765       0.449934758245347     
         162           1  9.791353981990625E-002   1.41914131635946        1.87393435930323     
         163           1  -1.89547009293779        1.64800988141608        2.31152840026551     
         164           1  0.920086667755773       -2.28057550006266        1.21127994234942     
         165           1  -1.37784919754396      -0.391495583904157        1.56493093985763     
         166           1  -1.81042100611208        1.59777355606059       -1.49471845149030     
         167           1   2.08880393203392       -1.10873254813158       -2.20148462605919     
ITEM: TIMESTEP
 0
ITEM: NUMBER OF ATOMS 
         167
ITEM: BOX BOUNDS pp pp pp
  -2.84960420785000        2.84960420785000     
  -2.84960420785000        2.84960420785000     
  -2.84960420785000        2.84960420785000     
ITEM: ATOMS id type x y z  
           1           1   1.76264125459275      -0.884308872085675        2.30930609651846     
           2           1  7.376867712764429E-002  -2.40688937030628       0.396380825887935     
           3           1 -0.493133713263884        2.75261170519705       -2.46523722416896     
           4           1 -0.672531465924990       0.451807137375819        1.65371828648950     
           5           1  0.794578758634642        1.40641668957314       0.516573470768909     
           6           1  -1.15556735913605       -2.16944705222428       -2.30401051529962     
           7           1   1.95928432192432        2.35025413651890       -1.94066132432707     
           8           1  -1.85653701647633      -0.565115864991927      -0.197237829066861     
           9           1  0.871524019009481       -1.84206222931425        1.99406694844117     
          10           1   1.57480563166263        1.07482855254908        1.99782273206792     
          11           1  0.220370496929219       0.293234508512290       8.631982393542290E-002
          12           1  2.466781554316062E-002   2.37131218984636       -1.49720442421937     
          13           1  -1.22011446169090        1.92478408915368        1.17890062057374     
          14           1  -1.89327926063832       4.081286845196443E-002  0.749684062759845     
          15           1  0.228472178572539      -0.109563485897338        1.16828928194458     
          16           1  -1.29017246558417      -0.518280594958460       -1.21315779823141     
          17           1  -1.20750556380192       0.288832836789035      -7.822081157685593E-002
          18           1  -2.52748282403548      -9.576199561612334E-002   1.69321890941110     
          19           1  -1.15250161407773        2.62702337935175       -1.64487126926360     
          20           1  -2.84292937559712        2.51721068632880       -1.56402581311852     
          21           1  -2.72686539449355        2.58003782496035      -4.845293519210775E-002
          22           1  -2.56582132988371       0.125805004252020      -3.638985182027060E-002
          23           1  5.738378578991385E-002   1.82901640638093       -2.62155723512669     
          24           1  -2.80167938901865      -0.109778488396367       -1.01989237476299     
          25           1   1.62076449163769        2.64175876241543      -0.989691515227270     
          26           1  0.128085309575130       -1.12470333757425        2.53704472654948     
          27           1  0.555723550467813      -0.722908340878244       -1.87532927825372     
          28           1  -2.70683833960805       -1.25858369705668      -0.253592525546488     
          29           1   1.05882386397340      -0.390733489164747       -2.83228915218678     
          30           1   1.60757351462294       -1.61860991271304        1.27230089154768     
          31           1   2.03384537686520       -1.24231043634854      -0.828155791442547     
          32           1  4.944317408172107E-003   2.58011852524510        2.13027480243130     
          33           1  -2.03085593638238        1.07123304359006       3.260738074050411E-002
          34           1   1.20503681921361       5.127779574709821E-002 -6.906260994949585E-002
          35           1   2.20962247091002       0.572940533896159       0.163684781038476     
          36           1  -2.33927064730952       0.778060148152967       -1.62892643079566     
          37           1  -1.35461897973482       7.988815498780338E-002   2.48502332768995     
          38           1   2.48812366498577        2.13975895018188        1.78675515639502     
          39           1   2.46631866576116       0.419884735756023       -2.23600638830646     
          40           1   1.90721557220697       -2.28651346423937       -1.64907729495867     
          41           1 -0.896474117692366       -1.30587273613765        2.59522944014188     
          42           1  -1.29542098582526       -2.12088691737474       0.407643683687346     
          43           1   2.66617127430267        1.61282888558531       1.623685200271141E-002
          44           1   1.02940094520095        2.25505283005905       -2.47717184408678     
          45           1  -1.09067215561562        1.88840908786844       -2.63115504646228     
          46           1  -1.48336967607450       -1.02803357737516       0.746378767133829     
          47           1 -0.381527997057154       -2.37841107072115       -1.45316332417632     
          48           1  -2.38873870173358        1.71059874865508       -1.08529783745683     
          49           1 -0.490275320514167      -0.558327080318340        1.89890248182646     
          50           1   2.78497475271007       -2.43936624387934       -2.47447666603451     
          51           1  -2.03726949036253      -0.787772453678341        2.65348909044653     
          52           1  -2.26999928460301        1.65890612388259       0.900382846345147     
          53           1  -2.03108597727802       -1.81507565028376        2.79140159392097     
          54           1   2.08879346664409       -2.12536893781612        2.30326112990978     
          55           1   1.73485411338716       -2.73784439993529        1.20856698846080     
          56           1   1.85780594804386      -0.355913777494927       -2.02772785504822     
          57           1   2.72683727608613       -1.22569669080293        2.45726134946839     
          58           1  0.838731869958935        1.90253277475364        2.25258396795996     
          59           1  -2.36635729396391        1.19479049019095        1.81028345666131     
          60           1  0.234429202727262       0.288345400495708        2.21126849286973     
          61           1 -0.921878628052779        2.58485669721073       0.406389920733788     
          62           1   1.13846762933470       -2.03072369416700       0.432645740991281     
          63           1  -1.51173839814375       -2.13657145929263       -1.05835284912790     
          64           1   1.29594657642822       0.128157272799801        1.72218306829441     
          65           1   1.31672522321387       0.619207022401876       0.791754864092218     
          66           1  -1.89462645314288        2.65408359346509      -0.882560420774730     
          67           1 -0.830989064335821      -8.683309188369077E-003  0.762916595130582     
          68           1 -0.612343551891207       0.420591374795026      -0.828794679736180     
          69           1   1.34659630425017       -1.38749378637086       -1.59449913503230     
          70           1 -0.417444848099326       -1.54453399436371       0.767031424481711     
          71           1  -1.70348255654150        2.06697272501582       4.955998211165758E-002
          72           1  -1.91381035037543      -0.104962728242066       -2.20519818120415     
          73           1 -0.862140133597939        1.38854940200347       0.123299882821719     
          74           1   1.31663923096085       0.563341254628435       -1.95014126844675     
          75           1  -2.25644798812298       -1.40477087221138        1.76321431003517     
          76           1  -2.06923751354104       -2.14879530461655      -0.176695468772845     
          77           1  -2.47777017983165       -1.75137425030839       -1.71326901174610     
          78           1  -2.04369895731593       -2.58017813318033       -1.92290916621350     
          79           1  0.996226764496386       -1.08985079062774      -0.223471238902613     
          80           1  0.808795520288860       -2.52896699975517       -1.82658035204572     
          81           1   2.41468240060970      -0.987850794415655        1.41230631056471     
          82           1   2.58858165372181      -0.172232657577670        2.65557491965664     
          83           1 -0.460294999645213       0.812768535030313       -2.73079319401169     
          84           1  0.630260836373912        1.15497670137749        1.60518905782966     
          85           1  -1.41747327053972        1.08881573010937        2.19442057786439     
          86           1   2.27875905434602      -9.653356656588573E-002   1.00727102296110     
          87           1   1.24618821131173        2.01813755745231        1.36244315188639     
          88           1  -2.08334679477617        2.71955706947802       0.744966164579273     
          89           1  -2.78001968394734      -0.687006962780633       -1.88240230033146     
          90           1   1.36721713485903        1.20230305250480      -0.333558520739261     
          91           1  -1.31432904213564       -1.41053299088210      -0.358659269048679     
          92           1  -1.50885944302255       -1.06817771752192       -2.10184831763566     
          93           1  -1.66659581601201       -2.28601638415170        1.54388519873859     
          94           1   1.31590832543110      -0.578338727236719       0.766151555580358     
          95           1  3.869354903187579E-002   1.17832989600102      -0.408718059149437     
          96           1  0.765699394108313       0.923598022650361       -2.81369107431157     
          97           1   1.35818524311052      -0.359518225144681       -1.12351685836759     
          98           1  0.245930312856578      -0.333881917225689      -0.999820787427616     
          99           1   1.84420771097599        2.20241986125755        2.53013179434870     
         100           1  -1.79061129273470       0.288776299636146      -0.898098233885199     
         101           1  0.174592423146676       -2.14876305708838        2.76070322825701     
         102           1   2.53575832498746        2.47614979056583       0.792189895311721     
         103           1   1.99321990258679       -2.60055094539596       0.162116708524538     
         104           1   2.24141203694458        1.37530513568831        1.01880191068718     
         105           1  0.860303451111809        2.65992149670951       0.247401786728713     
         106           1   2.04604093121513       -1.48738219092262       0.277977678038572     
         107           1   2.58627290542858       -2.06686626599320        1.29085662051857     
         108           1  0.107323397290454      -0.707312612959348       0.331095147192409     
         109           1 -0.276589107955491       -1.50935175676162       -2.16768982949322     
         110           1  0.991210990529240       -2.77345540373625        2.28248275467918     
         111           1  -2.56649664783634      -0.709705381027425       0.583985068242678     
         112           1   2.57147735064744        1.37547493944298       -1.85053426069094     
         113           1  -2.29995096825235       -1.76412004362525       0.738867365210065     
         114           1 -0.698284413473119       -2.38190427402188      -0.453547850981769     
         115           1   2.49381323927918        1.28554836065499        2.48384828037100     
         116           1  -2.26050073218037       0.622840210034698        2.83873317399553     
         117           1   1.39790996715695       -2.15695213173970      -0.694035700893834     
         118           1   2.46489694741024       0.651122169645126        1.74458927601368     
         119           1   2.11461378128478      -0.527075158800077      -0.101722402340507     
         120           1 -0.687394250666967       -1.46413786485047       -1.22291003814462     
         121           1   1.82471758489829       0.644311191993433       -1.03383448235988     
         122           1  -2.09979938057930       -1.12538501337023       -1.05240445008066     
         123           1  -2.65256039113936       0.713169890374690       0.811802261400574     
         124           1 -7.956077629324015E-002   2.22918556808278      -5.285989915194551E-002
         125           1  -1.51535761327967       0.900602081877589        1.12774564733986     
         126           1  0.558319854785812        1.20607806244265       -1.73186379686290     
         127           1  0.820605445558054       0.532763706003664      -0.896820683436538     
         128           1   2.66237063435001       -2.35318561059882      -0.678256350358768     
         129           1   1.72876420193903       0.392282898674753        2.79792016028202     
         130           1  0.496807967481417       -1.62809970003464       -1.09753038695259     
         131           1 -0.841419725088741       0.147508203796248       -1.93150252125651     
         132           1  0.254542500299108       0.316351530924315       -2.04087491902416     
         133           1   2.78808452694339        2.20292707717775       -2.52376611130762     
         134           1   1.52697455484757       -2.58484484436087       -2.61563595821952     
         135           1   2.75007483306484       0.924188847951118      -0.683735343335134     
         136           1 -0.103081128937045        2.04075040828887        1.18598084237909     
         137           1  -1.85413213806729        2.75721330208505        2.77944430728397     