ITEM: TIMESTEP
 0
ITEM: NUMBER OF ATOMS 
           1
ITEM: BOX BOUNDS pp pp pp
  -12.8496042078500        12.8496042078500     
  -12.8496042078500        12.8496042078500     
  -12.8496042078500        12.8496042078500     
ITEM: ATOMS id type x y z  
           1           1   1.96622398457784      -0.837988453209000      -0.685758201643040     
ITEM: TIMESTEP
 0
ITEM: NUMBER OF ATOMS 
          12
ITEM: BOX BOUNDS pp pp pp
  -12.8496042078500        12.8496042078500     
  -12.8496042078500        12.8496042078500     
  -12.8496042078500        12.8496042078500     
ITEM: ATOMS id type x y z  
           1           1   1.83137175358100      -0.711049454593086       -1.51107641491969     
           2           1  -12.6755064744422        11.0266455105088       -5.11235086733174     
           3           1   3.02525718696031        3.01613275056805       -12.6195137396115     
           4           1  -10.3634009732959       -1.15952201242401       0.853801002171866     
           5           1   10.5677229275844        11.4999559285521        10.7154781419368     
           6           1   3.87554854084047       -4.43047132140721       -10.9625687598378     
           7           1  -9.34773809305459       -11.3908729781860        4.42786314083288     
           8           1 -0.428622546746266       -1.79049835663341       -8.29561061467190     
         257           2   4.40075744739376        3.02370568680228       -12.2825582248030     
         258           2   8.59967368594883        10.8862271640436        7.02194020079686     
         259           2  -7.69348607193272       -2.71464985379092        1.78032459209755     
         260           2  -7.46822037255775      -0.251333051420470       -7.87536580207051     
ITEM: TIMESTEP
 0
ITEM: NUMBER OF ATOMS 
          19
ITEM: BOX BOUNDS pp pp pp
  -12.8496042078500        12.8496042078500     
  -12.8496042078500        12.8496042078500     
  -12.8496042078500        12.8496042078500     
ITEM: ATOMS id type x y z  
           1           1   1.82803116037034      -0.440242605884304       -1.19366304743315     
           2           1   12.8064763814989        10.9495265492681       -5.71854752742854     
           3           1   3.92855507020247        3.88823673258975        12.6709243961610     
           4           1  -9.08937903475067       -1.46686614054821        1.09346200416564     
           5           1   9.33955762914487        11.9669914427699        8.75823754436487     
           6           1   3.70475228713714       -5.92560599905043       -9.95285452330145     
           7           1  -9.68944311562193       -11.5432902285126        4.61119982379209     
           8           1 -0.847387233764355       -1.38166955211559       -8.79202718724483     
           9           1   4.71969245568409       -7.97178304274561        6.10678128397437     
          10           1  -11.1551036657201       -5.17751350044432        10.9307693184611     
          11           1   8.36560201265943       -7.39762708992192       0.950037284122656     
          12           1  -8.59381593198269        6.42912286517676        12.0613929078823     
         257           2   4.58136210520088        2.74746540538642       -12.8427760925639     
         258           2   10.1482963793885        11.4537886302351        7.74244996285136     
         259           2  -7.82958056425394       -1.91740969347865        1.27461866975441     
         260           2  -5.70775020757819       -2.46306730928556       -9.22473388756469     
         261           2   3.72156729259694       -10.3611273882665       -12.2228053686451     
         262           2   9.51301847753341        3.07768206038935        1.51857483080004     
         263           2   6.90318821981537       -12.5652988697664        1.75112013096840     
ITEM: TIMESTEP
 0
ITEM: NUMBER OF ATOMS 
          31
ITEM: BOX BOUNDS pp pp pp
  -12.8496042078500        12.8496042078500     
  -12.8496042078500        12.8496042078500     
  -12.8496042078500        12.8496042078500     
ITEM: ATOMS id type x y z  
           1           1  0.682695570288894      -0.532690038834153       -1.26713871999317     
           2           1  -12.0008935022709        11.7961851011334       -4.80257510976367     
           3           1   4.00008152854845        3.58723401155281       -12.6687489813940     
           4           1  -8.65176106559311      -2.397006858146622E-002   1.32332713513078     
           5           1   8.97289591625550        12.1081356120645        9.08807630711860     
           6           1   3.72920396012832       -6.74058711368817       -10.2191009580592     
           7           1  -9.21110120848911       -12.4321611073457        4.62686297071730     
           8           1 -0.666302952004208       -1.13346924040813       -8.71068846337331     
           9           1   4.18852269638931       -7.82211790090630        6.57040253750765     
          10           1   1.05918734495925        10.6298733533589        11.7897904586315     
          11           1   7.40283798863138       -8.58284592093484        1.19804849866395     
          12           1  -9.24153062419969        6.76600218283547        12.3746789095870     
          13           1  -6.21023766725980       0.922518262487666       0.639492511977176     
          14           1   6.57597236616229        2.76360525260867       -11.7859268945623     
          15           1  -1.68930363027847       -1.42008427152342        10.2168079575170     
          16           1  -1.26574508583560       -1.19764065238028        1.75168867586794     
          17           1   10.7340888250944       -3.61660653684255        11.8731560861093     
          18           1   4.65119076436627        6.12972779871364        3.24639006086732     
          19           1  -6.33460790687182       -1.82888203668204        2.75650426127674     
          20           1   10.6966593250118       -9.15481461112965       -2.19148270474225     
          21           1   3.43033345567463        10.5665857014100        7.75949316430015     
         257           2   5.31560891796270        3.19524328494327       -12.3783657781552     
         258           2   8.74964690919475        10.6658247572783        8.80577946464958     
         259           2  -7.22083315876620       0.223790873510685        1.39483494039496     
         260           2  -5.20726595054547       -3.25192506713199       -9.13615383257819     
         261           2   4.05674771097956       -7.56026013323349       -11.2563631941712     
         262           2 -0.564814266946653      -0.918744224915047       -1.15572743384979     
         263           2   5.82985522929453       -10.8699973619043        3.12715132883515     
         264           2  -11.4176855311258        5.29863607972037       -4.03359054783137     
         265           2  -5.15489160742727       -9.59963111693289        6.81812957667705     
         266           2  -12.4336543598327        5.55324474921371        12.7818254194310     
ITEM: TIMESTEP
 0
ITEM: NUMBER OF ATOMS 
          45
ITEM: BOX BOUNDS pp pp pp
  -12.8496042078500        12.8496042078500     
  -12.8496042078500        12.8496042078500     
  -12.8496042078500        12.8496042078500     
ITEM: ATOMS id type x y z  
           1           1  0.149137253403212      -0.234335575363500       -1.71872999053338     
           2           1  -12.2499967049617        11.7487175771650       -5.20082017525370     
           3           1   4.11273479552697        3.38808354173293       -12.7103448898797     
           4           1  -8.72550354889715      -6.186039148215941E-002   1.58790387788249     
           5           1   9.23073772758705        11.6423097609565        9.79838046473210     
           6           1   3.46272521823356       -6.91446347269392       -9.94057560828702     
           7           1  -9.24097712910960       -12.6529035036459        4.80808153837584     
           8           1 -0.844028789692739       -1.05567495022822       -8.97389882622203     
           9           1   3.49012997601781       -7.99716060510756        6.63492090238607     
          10           1  0.714662305350483        11.2433760472831        11.5242758366721     
          11           1   6.62715276696292       -9.50089964415929        1.31171358431861     
          12           1  -10.4856067825922        5.94570408474351        12.6315492940961     
          13           1  -6.16431196072327       0.495814820369517       0.838881245415658     
          14           1   6.83153121525988        3.33069303988872       -11.9716138562045     
          15           1  -1.87132020825248      -0.307308021639668        11.0624264660143     
          16           1  -1.27211521834505      -0.543098986857916       0.760879657572115     
          17           1   11.2058497395764       -3.54040772465182       -12.8093449287944     
          18           1   4.28075271298854        5.90465419938076        2.52412362268805     
          19           1  -6.56872613857267       -1.59209401605188        1.97954318235738     
          20           1   10.7038166531246       -9.11517279194383       -1.92879767362396     
          21           1   4.13292504022555        10.9285478542502        7.25494330564067     
          22           1  -10.1977309865126       -8.87517856386684        3.64573539666568     
          23           1  -5.46839284798134       -7.57637005364866        6.56293701039835     
          24           1   10.8028908253144        6.72948137040439       -3.09261552514566     
          25           1   11.1162539608317       -1.47102557866867        3.83268830867521     
          26           1   10.6998362268876       -6.60337360257865       -7.10437146830108     
          27           1  -12.4544728520769       -4.38748008599713       -9.12086159729869     
          28           1   1.92008788882332       -5.32990331927970       -12.0042399234479     
          29           1  -10.6171134099053        1.47327039284710       -4.34504080280080     
         257           2   5.50284937170128        3.11310522621573       -12.3670162314549     
         258           2   9.19485440221803        10.5412867232067        8.48053084942708     
         259           2  -7.28145086060059      -0.467105322795842        1.39003321461474     
         260           2  -4.79688258080468       -2.85646130513444       -9.53987332170941     
         261           2   3.57707536949162       -6.80471847146497       -11.4016997884590     
         262           2 -0.866925817176123      -0.727472232204659      -0.726342540676177     
         263           2   6.12402602019916       -10.0374041174625        2.37303147332457     
         264           2  -11.6104302348722        5.15368132043312       -3.37000360554419     
         265           2  -6.26486108422900       -8.58409505779073        6.17250060936141     
         266           2  -11.6336289947842        5.38796384695366        12.4937699572027     
         267           2   12.1158128373112       -6.09380853094962       -7.05177506631565     
         268           2   4.05334484102482        11.0474494347867        5.95132493157565     
         269           2   10.8725943857723       -2.79379110332337        3.59809802358070     
         270           2  -4.80740772538331        1.18433260298007        3.54344629212123     
         271           2   1.12590620876839        9.97213587937834        11.2261453428979     
         272           2   8.80510032392882       -2.09505736077673       -7.86302518669878     
ITEM: TIMESTEP
 0
ITEM: NUMBER OF ATOMS 
          55
ITEM: BOX BOUNDS pp pp pp
  -12.8496042078500        12.8496042078500     
  -12.8496042078500        12.8496042078500     
  -12.8496042078500        12.8496042078500     
ITEM: ATOMS id type x y z  
           1           1  9.127449106482483E-002 -3.324531791690938E-002  -1.73814361285279     
           2           1  -12.7683285478302        11.7299617497662       -4.84629264851440     
           3           1   4.11254260341393        2.89022131243855       -11.6173930756287     
           4           1  -8.71007038154662       8.827469331238612E-002   1.57341100863627     
           5           1   9.41999831056065        11.8095686948263        9.53215468209408     
           6           1   3.52095800942777       -6.74681542774796       -9.65961920218618     
           7           1  -9.12140749996353        12.1508414173110        5.07307603301685     
           8           1  -1.60992019340920      -0.967591793152368       -9.57144535360442     
           9           1   4.06262553638610       -7.23885856050324        6.64538558715955     
          10           1  0.500733118357409        11.2028830263246        11.5381587441594     
          11           1   6.75917262233285       -9.31596229705174        1.54102821744042     
          12           1  -10.5502734442880        6.13869824448688       -12.6191239526415     
          13           1  -5.62344620638001       0.676884915173700        1.06131197519789     
          14           1   6.60327859563092        3.49376929356734       -12.1297428101694     
          15           1  -2.66394981972827       0.158611472858490        10.5141931066156     
          16           1  -1.29065330686248      -0.250926358695721       0.760883574090674     
          17           1   11.0962262113159       -3.68069302447173       -11.6217960068800     
          18           1   3.98902808714514        5.61398998825852        2.97511872374256     
          19           1  -6.75983817654409       -1.40407603091309        1.78076730955399     
          20           1   10.2082533163689       -8.98882268774729       -1.72728307455794     
          21           1   4.48337445841990        11.2842519570896        6.79238926810396     
          22           1  -10.3495652784154       -9.22271169923718        3.37701049531216     
          23           1  -5.97994998526478       -7.18443687471522        7.00250894224201     
          24           1   12.1764523032840        5.97702064597641       -2.73779884602046     
          25           1   11.0419055528062       -1.75148055739261        3.59817883111459     
          26           1   10.5843341461874       -5.55677047939497       -7.50548151412114     
          27           1   12.5332861629515       -4.45102842166608       -8.73064125869805     
          28           1   2.56481886566914       -6.40192485468211       -12.1092509065490     
          29           1  -10.7636059630209        1.91322619263196       -4.16416743055368     
          30           1   9.31774465097374        2.36291454132478        12.4315450986725     
          31           1  -2.37657645573658        8.23783077216840       -12.1340678459934     
          32           1   7.41538073578385       -9.52900805546181        4.79272803292391     
          33           1   10.7162523363896       7.096087348774573E-002  -2.35912112355129     
          34           1 -0.172090917538416       -10.8836453164929       -1.47434036743565     
          35           1  -12.1442406673544       0.453009613580008       -7.83124549755632     
          36           1  9.757202431950934E-002   3.95780093569497       -3.05524485274128     
         257           2   5.29112056253386        2.99349969953865       -12.3480700807063     
         258           2   8.73209591653691        10.9792480894539        8.73182771912496     
         259           2  -7.42940935709135      -0.285015484830229        1.68969646014030     
         260           2  -4.17776752980190       -3.12637341988853       -10.0074330730561     
         261           2   3.43642736894680       -6.26435613081409       -11.0014494840745     
         262           2 -0.857324712353802      -0.333825862996197      -0.614504687070394     
         263           2   7.12476234621777       -9.41179330098987        3.01279548221915     
         264           2  -12.2610294053313        6.00920625423510       -3.38854725660733     
         265           2  -6.74223887769032       -8.00710770454522        6.19885051154086     
         266           2  -11.9292936012247        5.84201337399493       -12.7457454302245     
         267           2   11.9835215094200       -5.47538178426010       -7.84128496059357     
         268           2   4.36636635445166        10.9812498154845        5.50510061575277     
         269           2   10.2030936509911       -2.84208158319499        3.37304644702424     
         270           2  -4.82359144911768       0.859912349500228        2.20226020555392     
         271           2  0.747341987288118        10.0957650373147        10.8938208787123     
         272           2   9.35665918787438       -2.08170345972733       -8.28292708515398     
         273           2 -0.495238470852667        7.39966963213871       -8.33705636897809     
         274           2  -4.14700660611742        5.31234252580198       -6.09339859307300     
         275           2  -9.29021566831284       -6.01297436951344       -2.13568619912705     
ITEM: TIMESTEP
 0
ITEM: NUMBER OF ATOMS 
          64
ITEM: BOX BOUNDS pp pp pp
  -12.8496042078500        12.8496042078500     
  -12.8496042078500        12.8496042078500     
  -12.8496042078500        12.8496042078500     
ITEM: ATOMS id type x y z  
           1           1 -0.146744965567803       5.119363099407978E-002  -1.28096590115229     
           2           1   12.7127482663817        11.6818813587124       -4.47639138120768     
           3           1   3.75138522529619        2.87216776168125       -12.1371659423632     
           4           1  -8.80839474304547       0.449158829060408        1.14863308610442     
           5           1   9.59288331771338        11.5667019699379        9.74540553600907     
           6           1   3.46314627289837       -6.88876170133980       -9.75514139055741     
           7           1  -9.23432909030314        12.8390645127709        5.16409314913587     
           8           1  -1.82706211812567      -0.849028618561094       -9.75081036719358     
           9           1   4.00381427742408       -7.17839233255375        7.14059389396602     
          10           1   1.18394340266109        10.6854514949308        11.3177434662600     
          11           1   7.03228870657877       -9.25810576690724        1.34978772075037     
          12           1  -10.4503502560087        5.83565871771122       -12.2349634598323     
          13           1  -5.47221305446747       0.962260015422866       0.754297072458181     
          14           1   6.66797282783852        3.59533858895639       -12.4488168435262     
          15           1  -2.76988458990723       0.395384979596161        10.0267166299845     
          16           1  -2.07903465977794       0.529821288806708       0.366869169349739     
          17           1   10.9699281004190       -4.50265877528626       -12.2026461502433     
          18           1   3.37591869175790        5.21864136664291        3.27833978454214     
          19           1  -6.79692943938783       -1.57381870416689        1.43722091286306     
          20           1   10.5990201336907       -7.94456215275089       -1.33223597523960     
          21           1   4.07438162916139        11.1817619252790        6.59332273610452     
          22           1  -10.0532892847874       -9.67956462540451        2.98998015734807     
          23           1  -6.30072687336095       -6.94175057561358        6.57323809504211     
          24           1   11.8491240365625        6.27082152016029       -3.28064505764861     
          25           1   10.9129972653760       -1.42699176678186        3.20208640768310     
          26           1   11.1212623896811       -5.62539793773199       -6.74108226060500     
          27           1   12.3181499117539       -4.72870094149739       -9.03655397087117     
          28           1   2.77893121526261       -6.71236062994222       -12.3274095242940     
          29           1  -10.0269845242985        2.58243887956500       -3.46706469224708     
          30           1   10.2165445647190        2.37155428038798       -12.4159318139150     
          31           1  -1.74870043542579        8.51933706836788       -11.5236205148034     
          32           1   7.55367682937689       -9.62914453607100        3.87035493582160     
          33           1   9.84515149276151       -1.18227362587209       -2.34250576886360     
          34           1 -5.436435441795578E-002  -10.5440451716350       -1.02965435236702     
          35           1  -12.3290227279482       0.296207221031644       -8.53077125843322     
          36           1  -1.31955285355098        3.88416756845547       -3.38905970371503     
          37           1   8.00773285604723       -2.87915945931962       -9.86103902795052     
          38           1   6.60877567091002        12.6364710689803        5.76657734871933     
          39           1   3.33018927488619       -2.08974399604216       -8.77987500235078     
          40           1  -9.96222076582707       -9.92668112742837        12.4715429242817     
          41           1   4.00282384322641        5.69456372769800        11.2079842728182     
          42           1   12.5446595115454        7.77461809285273        9.03347696837257     
         257           2   5.19833334634658        3.06291198839742       -12.3947543178817     
         258           2   8.98394418501829        10.4083240533316        9.06121956213007     
         259           2  -7.83646396817506      -0.475503269395399        1.42542492937189     
         260           2  -3.85600729877541       -2.98370066418564       -10.3812495865914     
         261           2   3.30613344549890       -6.17328328935184       -10.9705208775688     
         262           2  -1.26727868373719      -0.424406045855088      -0.415863350313282     
         263           2   6.70537362855973       -9.39174324181343        2.68046160110500     
         264           2  -12.5279874267570        6.47658762418614       -3.49676007611140     
         265           2  -7.43658240868281       -7.80564700711533        6.58962989693984     
         266           2  -11.8776492946157        5.89894906529757        12.8403675845679     
         267           2   12.1631570475866       -5.13137012433297       -7.66369392566943     
         268           2   4.62966434021714        10.9839466623633        5.27062944713201     
         269           2   10.1689327059990       -2.44377329923162        3.59815363586356     
         270           2  -4.45630431632908        1.45712657636676        1.51587572215169     
         271           2  0.203532888291557        10.2132260969378        10.4811845254076     
         272           2   8.97970437212513       -2.18833526422336       -9.00681954648814     
         273           2 -7.265604524797603E-002   7.40715836606720       -10.2019131274459     
         274           2  -4.14667614930176        4.73776980400444       -5.19062085242080     
         275           2  -11.8318227276319       -7.36960022608015       -1.23339908127571     
         276           2   10.3494861024026       -7.51485138639609       -12.8313529846765     
         277           2  -5.85279547750287        8.17636514444316        4.13023616824883     
         278           2   10.2945509303251        5.44159404911968       -5.18839805173738     
ITEM: TIMESTEP
 0
ITEM: NUMBER OF ATOMS 
          74
ITEM: BOX BOUNDS pp pp pp
  -12.8496042078500        12.8496042078500     
  -12.8496042078500        12.8496042078500     
  -12.8496042078500        12.8496042078500     
ITEM: ATOMS id type x y z  
           1           1  0.146573627748294      -0.455878130930720      -0.786480871939921     
           2           1   12.3358621878598        12.0855140350233       -4.13557211960942     
           3           1   3.57026526206993        2.79542280546060       -12.3053698249460     
           4           1  -9.24329187231478      -0.154683250254816        1.47369138439036     
           5           1   10.0970139474351        11.3185560421932        9.61095837336781     
           6           1   3.23804839922253       -6.76340479546352       -9.11812419676373     
           7           1  -9.12084125487523       -12.5678250419669        5.07496686341550     
           8           1  -1.86959287124504      -0.653881406911932       -9.33432362609935     
           9           1   4.19567754851673       -7.05784023800470        6.83070201735038     
          10           1  0.709992832858578        10.9454785497227        11.3568136886156     
          11           1   7.06965854298123       -9.50177839754335        1.12583680949738     
          12           1  -10.8178112468328        5.80573232463012        12.8476650090962     
          13           1  -5.73285858567347       0.846071033099639       0.879502994697050     
          14           1   6.26813858255755        2.99742727003852       -12.2164706488662     
          15           1  -2.10866951040593        1.48415003574278        9.99970853356850     
          16           1  -1.93606778272736       0.720182433126633       0.686038535998193     
          17           1   10.4955248621560       -5.34838662002025       -12.4177281436753     
          18           1   3.79043866790709        5.92552264879706        3.19735541459404     
          19           1  -6.77109422215473       -1.47178786612956        1.53364716215058     
          20           1   11.4642183406588       -8.41614795463506       -1.02685272314871     
          21           1   3.90073182577005        11.3304737462102        6.08239752664461     
          22           1  -9.96266547424873       -9.19669023845892        3.42722086524894     
          23           1  -6.46314574764452       -7.30321330211607        6.98085157091021     
          24           1   11.6452483795780        6.09004931045297       -3.61457431073657     
          25           1   10.8583910997624       -1.53002378778245        3.17087068184526     
          26           1   11.4685665993654       -5.52217743533484       -6.38929712270656     
          27           1   11.6259917165593       -4.26800541286251       -8.87926655028847     
          28           1   2.82562879010890       -6.57432119383152       -12.0417801378744     
          29           1  -9.55344244085579        2.49191126154057       -3.38102393024577     
          30           1   11.2381232786632        3.32830322638907       -12.5692922237764     
          31           1  -1.57653107204905        8.45155947439698       -10.8353923555723     
          32           1   6.72605605696835       -9.78643672400856        3.93604043334023     
          33           1   10.2138810197855       -1.55944101549794       -3.35339563723166     
          34           1 -0.527016251991596       -10.9634951212139      -0.915597777959596     
          35           1  -11.9178637737197       0.278156372111148       -8.58854402536780     
          36           1  -1.47439195502504        4.33827866137765       -3.39898505140702     
          37           1   8.43767916356281       -2.98213695888961       -9.78865928358173     
          38           1   6.23961693158185        12.7230500925776        5.75545661231568     
          39           1   3.58718617336991       -3.20969939515484       -10.0557350167591     
          40           1  -10.0421204780294       -9.91085971858892        12.0519308166473     
          41           1   3.92556863436105        6.46270446541516        11.8719992373842     
          42           1   12.5915161988716        7.79978880014743        9.41808201621637     
          43           1   10.0408964852715       -1.38551920929917        8.60493554764002     
          44           1  -2.71873492500369       0.467413091445267       -1.59622133272255     
          45           1   1.88041389590213        3.06181245859203       -7.19231187799278     
          46           1  -11.7556194867723        2.01660220269501       -5.86379502818880     
          47           1  -8.70183922839373       -9.73370172410624       -6.08828500590243     
          48           1  -1.61065371563944       -6.97825903088647       -4.41181241350675     
          49           1  -4.87738919400795        7.50319993425203        6.94054821575304     
         257           2   4.92188909436226        2.92829386278967       -12.5970597867218     
         258           2   9.30916938259689        10.3546793624943        8.97491708858011     
         259           2  -7.92079615300744      -0.782381570273632        1.68269632731480     
         260           2  -3.63789036906191       -2.96028056719829       -10.7796358565024     
         261           2   3.20828564206684       -6.60595008013555       -10.6022291049860     
         262           2  -1.11112865441550       0.159072952607062      -0.711170010593231     
         263           2   7.22277758397859       -9.69130643104057        2.53174879976824     
         264           2  -12.4691760619193        6.00896918780164       -3.39025172051726     
         265           2  -7.57505052639040       -7.75642359912219        6.46443946876187     
         266           2  -12.1088136400815        5.51183594823636        12.3584728706737     
         267           2   12.1998826737951       -4.90469853624298       -7.56050799648742     
         268           2   4.99775049319584        10.8249094749382        5.15770212111425     