ITEM: TIMESTEP
 0
ITEM: NUMBER OF ATOMS 
         384
ITEM: BOX BOUNDS pp pp pp
  -7.84960420785000        7.84960420785000     
  -7.84960420785000        7.84960420785000     
  -7.84960420785000        7.84960420785000     
ITEM: ATOMS id type x y z  
           1           1   1.96622398457784      -0.837988453209000      -0.685758201643040     
           2           1 -9.696808945638263E-003 -6.565292204688449E-003 -0.376826844124349     
           3           1   3.66488773855092       -1.60876365120389      -0.397611475070921     
           4           1   3.16881043485137      -0.598985044018784        1.65503445988828     
           5           1   3.30806052484247       -2.76362317953240        1.81441592961386     
           6           1   3.73868989995924       0.975232275829525        4.87705188531365     
           7           1   5.43376514671401      -0.880038054937892        5.53189206267713     
           8           1  -4.73712518200115       -1.02396285803954      -0.864170652150358     
           9           1   1.19004866317270       -5.12941643886535        2.03783479204855     
          10           1  -4.73610654297527        2.39135536050993       -5.30886131880459     
          11           1   5.86268871098661       -6.92873208665595        4.95550876614797     
          12           1  -2.25214436456296       0.907963739769801       -6.06348709378513     
          13           1  -2.22238157019871       -4.82192891649588       -2.10245931385155     
          14           1  -4.41056044108029        2.86692012747543       -2.58761009060207     
          15           1   2.70830908523691        7.00231485976651        1.84930256178717     
          16           1   5.92318715551744       -1.08518401619692        3.30666901994319     
          17           1  -5.30820431139506       -1.17825694094234       -3.05535879221521     
          18           1   3.25069659941001      -0.976147139676949        4.06395020438156     
          19           1   3.57757857171372       -4.96954260991355        2.68579352087885     
          20           1  -6.89663602349913       -6.89956382215975        5.27085475871874     
          21           1   5.58793158573903       0.414000927651460        1.72938193424427     
          22           1  -4.94420561760351       -3.16274070511354       -3.83063762144746     
          23           1  -6.79863798776630       -3.06363328459921       -6.02897910675476     
          24           1  -4.37572076108574       -1.41511785656498        1.95590321989706     
          25           1  -3.62771330547242        3.05593100244895      -0.453316964094933     
          26           1   3.94196471714349       -3.06497316155343        7.31176060181285     
          27           1   1.62212591319405       -5.00031184688467        4.51301195700785     
          28           1  -4.32633133278397       -2.75771006466713       -5.96706556573213     
          29           1  -7.39404092335610       0.914771061879863        7.31958582309759     
          30           1  0.727517638435480       -3.01754810613174       -2.66129148088019     
          31           1  0.128193315087023       -4.71916479053342      -0.692070289392402     
          32           1  -1.96818593293322       -3.02984869341420       -3.96671014476051     
          33           1  -5.34453991607602       -6.35067194492821        7.22335179898054     
          34           1   5.69949113958962       -7.03682571248326        2.59252023774971     
          35           1   3.57297440226198       -4.75943522709027        4.96458999181197     
          36           1   3.65590773312355       -6.90460490091188        5.65994604610116     
          37           1   3.59845674134839        6.87089733325721        3.99209090674619     
          38           1  0.318704017356693        6.76353057476779        2.34102406434916     
          39           1  -1.64198952047457        2.91106749953537       -6.07640633749907     
          40           1  -2.49941345031976        4.92556336350464       -6.04084009616882     
          41           1   3.04871472454130        2.01041004372564       -3.29910135454662     
          42           1   5.94923582972708       -3.16222968752005        7.45960622601502     
          43           1  -7.54077123995253       -1.65194035468409       -3.70864939292528     
          44           1   6.02319665272964      -0.932739601402216       -3.68773086614510     
          45           1   5.52125556170929       -6.76978853995174        7.45154640118897     
          46           1   2.85957631862530       -1.02362713586527        7.03674977167171     
          47           1  -4.92700189010881      -0.495753149560515       -6.02311022554823     
          48           1   2.22337504302456       0.875625263447183       -5.66399583567990     
          49           1  -2.36157785112584       -3.19191664282944        6.78743359520486     
          50           1   5.42751884180521        6.42082927165263        5.20503882759570     
          51           1   4.00562900736738       -5.34999334524982       -6.09758871378188     
          52           1  -7.60838386761541       -3.04758526731866        1.86273485781759     
          53           1  -2.73325461080775      -0.806609539090645       -4.24003878228142     
          54           1   3.50931372848181        4.74965911621080        2.42125503781386     
          55           1  -2.38829886996610      -0.979994270310779      -0.695836529581575     
          56           1   1.08409568752705        4.77086960248429        3.89611858957648     
          57           1  -5.68611068201470       -2.97509818268086        3.60705083406219     
          58           1  0.329202308801168       -7.06050193465617        5.35477449001108     
          59           1   3.73650342165079       0.734467503111479        7.26026704126333     
          60           1  -5.05592620558969        1.13808123796796      -0.704826134418193     
          61           1  -4.87262266161945        4.75148543971498      -0.539080778627582     
          62           1  -5.26400018760355        2.76258163461016        1.04129720338985     
          63           1   2.69915089242704       -4.50558632980028      -0.771089821485868     
          64           1 -0.151459584601365       -5.42829918312611       -3.58825983030171     
          65           1  -6.89803640007624       -4.76086950981605      -0.586000730347291     
          66           1  0.756623440638138       -2.90711401234965        1.79074572057513     
          67           1  -7.45622886172785       -4.93677439122375        7.08059440029429     
          68           1   3.49506815371273       -1.00013254485991       -6.12099657375344     
          69           1  -6.15515667437131      -0.921702758239838        7.23490050569236     
          70           1  0.447264447049003        1.03003423497698        1.79249371210071     
          71           1  -4.30056407211707       -2.80104130464569        5.11612600502699     
          72           1  -4.90312867047058      -0.612909294541660        4.35758159251092     
          73           1  0.536938059932000       -6.98608986970652      -0.562101750563120     
          74           1  0.246622499892512        3.42229127092229        7.43159512400436     
          75           1   1.36731051278152        2.91158278571509        1.94985391987276     
          76           1   5.60062395221912        4.91445233545933      -0.555161005406707     
          77           1  -2.06635962038620       -5.78037667614228       -3.85637731723849     
          78           1   3.45451516463948        5.03426664577364        4.67520957910569     
          79           1  0.623355144002269        1.22635631846570       -3.51917705019566     
          80           1   3.43925191578369        6.85185932182570        7.12374275634486     
          81           1  2.075840152551509E-002  -6.90570169477241        1.79279089311582     
          82           1  -7.60897251135981       -2.69493567322330      -0.491550765519591     
          83           1  0.344930982019339        6.58335287977987        7.19965794046890     
          84           1  -4.73075413954701        4.81803405327183       -6.12397198063061     
          85           1  -7.39980780103532       -7.36346631819273       -5.99359445314109     
          86           1   2.50489960461519       -3.00234889869656       -6.01450096039863     
          87           1   5.73013299260818       -3.12341250187664       -3.15175715290923     
          88           1   5.70616500338489        2.97175806105844        4.79279390839783     
          89           1  -2.06656644579947       -6.79743170710256      -0.677570549808000     
          90           1  -1.89966150088069       -3.14884513511555      -0.468915173956773     
          91           1  -7.54041019340493        5.10065044184015        1.89367184307663     
          92           1   5.38505775817614        2.03534558332785       -3.04581986697612     
          93           1  -2.17195731675687        2.78952599559394        5.42974306325837     
          94           1  -1.74773784034090        6.86616488404777        1.93500035404571     
          95           1   3.10926135103672       -6.77704324153497        1.81885101788880     
          96           1  0.293011531831467      -0.990721515226618        7.66181387551094     
          97           1   7.47455020831791        7.05538492381450        4.53295002308044     
          98           1 -0.361027165753357        6.76634254061562      -0.511675447460232     
          99           1   5.83049885973324       -4.97131225125678        6.34461571313896     
         100           1  -7.49896919782418        6.73973862635449        6.94326850887425     
         101           1  -7.66767602514045       -2.67259340580377        7.30304189241142     
         102           1  -3.13668583296621       -2.25217506321522       -2.87184745597019     
         103           1  0.255419402545425       0.960350903611262        7.01367801070925     
         104           1   6.49656412419614       -2.63925240168965       -5.84394379748920     
         105           1   5.72820709923098       -5.14715146767819       -4.30476330655780     
         106           1  -2.28560226580522        1.21692392749637      -0.708006542857432     
         107           1  -3.54931657910421        2.85371878439139        2.02026327129945     
         108           1   6.28376148523693       0.600845224119199       -5.98165343083049     
         109           1  -2.07294547366732       0.395125695572566       -2.62698950712234     
         110           1  -6.86238110806300        2.70593191051878       -3.46241769730174     
         111           1   4.94369018736418        2.82692197115135        6.72354257266905     
         112           1   3.92036505717271       -5.25833274426939        7.28165761599426     
         113           1   3.52686582686506       -5.05049554957564       -3.78759990480126     
         114           1  -2.06370031117880        4.81684801872840        7.22529047147416     
         115           1   2.50455997175786        2.56552450402995        7.21232356626982     
         116           1  0.687284000277935       -5.12252072746551        6.52538513783073     
         117           1  -6.97554063572101       -7.19170054481437       -3.14943597914130     
         118           1 -0.203747435740302      -0.978504824675848        1.91640751981449     
         119           1  -1.76078748280790        1.13433476521259        4.18048593858442     
         120           1  -7.44187660509739       -7.09757418170847      -0.413431710724749     
         121           1   6.55615241346013        6.65775665495690        2.35967874925614     
         122           1   1.75305025919427        4.97614286372797        1.36756037024744     
         123           1   2.11437736410891       -3.33119334439272        7.07992010418975     
         124           1  -2.00610397904879        7.16958786305573        4.23981462425011     
         125           1  -2.20129014299269        6.98620198371172        6.73539209560253     
         126           1   7.75271450826865       -3.13626584548645        4.60852513353202     
         127           1   6.13348117083125       0.933347278735460        4.40697583201929     
         128           1   5.12236133334517       0.715076864946936      -0.399610398548065     
         129           1   2.85105113701212       -3.02098043357980       -3.36027857786541     
         130           1  -2.05004318128618      -0.978703894420567        4.77774085547294     
         131           1  -5.10171454536420       -3.18343642181043      -0.556059462268117     
         132           1  -5.19054312429326       -5.37900784676285        4.85247475394806     
         133           1  -6.86032759403465        1.12487248968907       -5.97422594020254     
         134           1  0.305170281126956        2.67234984043428        4.79820901632458     
         135           1  -4.00944935213206       -4.95982802614838       -6.23956351278065     
         136           1  -2.18401650362967       -5.54049830519234        4.86880753580469     
         137           1   2.85221778938301        4.63519386262021      -0.531606732098980     
         138           1   3.65700200291973        6.84901141207527      -0.588198166221922     
         139           1  -7.63676408087951       -5.81372057677053        3.87459743732376     
         140           1  -7.23153827996573        2.86797734078316      -0.493239334902291     
         141           1  -1.74754544639397       -1.01585482694170        7.10465380067587     
         142           1  0.486218002819765       -1.33116332437693       -5.64258533516964     
         143           1  -2.38309187351834       -6.89425729102673       -6.32911516539000     
         144           1  -4.07307953244600       0.754344550778254        1.48493080718348     
         145           1  -7.15731961637956        2.82665435124216        4.88221573972825     
         146           1  -7.67173606332455        3.21876809704697       -5.85752894698540     
         147           1  -4.85817856122711        7.05035547139346        6.03754256489263     
         148           1  -7.42078979208326        2.77479132029288        1.87859871725460     
         149           1  -1.52269619091806       -3.11966449473559        4.51859525321630     
         150           1  0.160583616851181       0.973355763044219       -6.05727145239976     
         151           1  -4.81472555019670       -5.27269221376317       -2.93325160269425     
         152           1   3.59775082217369      -0.712317641721591       -3.00612810240303     
         153           1   3.45359552100238        2.90326278979718       -1.60035764616096     
         154           1  0.387696962963962       -7.06792485525040        7.60614207789153     
         155           1  -7.58423880182286      -0.756453214099602        4.13055253783026     
         156           1   3.04161780829240        6.77849981035550       -2.96585855984694     
         157           1   6.14676507346549        4.73466479227690        7.21037277443092     
         158           1   2.67033601777089       -2.90092486535386        3.87033362846562     
         159           1   5.67750669557623        6.88374626390927        7.32541426994988     
         160           1   2.78326387733739        2.70837656200914        3.97702622971696     
         161           1  -7.27446502684449       -3.43576839042499       -2.60364093885271     
         162           1  -5.01185274802863       -3.88433093802280        7.28040863309700     
         163           1   6.00025809742719        4.66986169689680        1.76973461270091     
         164           1  -3.76801125487285        2.36782759407850        4.31723895203050     
         165           1  -1.98151060025735       0.501792375793221        1.87606473513227     
         166           1   5.69976027725208       -7.21466462319030       -6.03597015592554     
         167           1  -7.51344380602467        5.51427345388914       -6.02119659607459     
         168           1  -7.51366815857270        4.77097233799407       -3.78691246855042     
         169           1   5.80334254998301        2.63933080638565        1.71589704512989     
         170           1  -1.90533069706780        1.08074570013565        7.18431492583168     
         171           1  -1.99331602862483       -5.54855601470036        7.14259998951638     
         172           1  -4.52870721816292        3.37231719470559        6.83615546099433     
         173           1   2.97697400336612       -6.84408137939107      -0.603586759826438     
         174           1  -1.52782863231660        2.55987913420963        1.54245733118807     
         175           1   5.47357518102717        4.33976872831801       -3.27044765777503     
         176           1  -1.39981651185112        3.24265414223011      -0.803847768728458     
         177           1  -4.17123865867481        7.43695970715063        1.64261915478127     
         178           1   4.15768181593201        1.18349077954822       -5.89573936592595     
         179           1  0.986630702667308        3.20918908561263      -0.716392575055462     
         180           1   2.88092452633544        3.37586291697962       -5.84153833537307     
         181           1  -5.39931153553207        1.37591038894401        2.84064887415776     
         182           1  -2.31965343901536        4.53138105215359       -3.05650172145154     
         183           1   4.80064306900115       -3.25666644872831       -6.11250994092842     
         184           1   5.79369747535549       -4.79213467515373        4.23781884607473     
         185           1   1.59718528753285        6.64600493834616      -0.575003902499151     
         186           1  -2.44070330231105        5.47375243985353      -0.746670123188498     
         187           1  -7.38842155278141        3.68485848973675        7.14271161001579     
         188           1   3.26234897368642        1.82858285434672        1.85363389199659     
         189           1  0.756036895486752        6.75075867724054       -6.02120101222098     
         190           1  -7.74436887640185       -7.00562392082932        7.25159082097813     
         191           1  -7.75647714993783       -1.03862436907235       -6.06279324890278     
         192           1   2.97185496979770        1.26186796092718      -0.715498006260609     
         193           1   5.40792198266835        4.82417321821679       -5.97131147230509     
         194           1   4.70787975707763       -6.77970302799021       -3.01265831633412     
         195           1  -4.23187864265625        5.64146406883476        4.48045056815540     
         196           1  -4.85457684158979       -4.96469923762624        1.87324665463814     
         197           1  -1.92957291989167        4.93552890773290        4.23073029522715     
         198           1   6.24598621912379        2.80721588385803       -7.60961983019644     
         199           1   5.20438527542161       -1.05313366889026       -7.69049520582736     
         200           1   6.72357991763923        4.89493051400623        4.77103493396649     
         201           1 -6.216789172348833E-002   4.72555688535693        1.21946989896270     
         202           1   5.66758431078096        2.74338491288968      -0.650497694121905     
         203           1  -5.02831569997479        1.24381117144024        6.49966393260430     
         204           1  -1.88946714365897       -3.18690903568612       -6.17137203289517     
         205           1  -5.15735841346557       -6.47056438444384       -5.27202042831899     
         206           1  -7.60947827372750       0.612671963284736       -3.43773899929011     
         207           1  -7.80124482446496        5.05116272891737      -0.284527300923534     
         208           1 -0.403146401134598       -1.23398083699713       -3.23552840903180     
         209           1  -4.02368006049448       -7.60289209982352       -2.63781558329280     
         210           1  0.988165957267824       -2.83129555170192        4.91687546631968     
         211           1   5.70049036564713       -1.52288290451570        1.09225405054678     
         212           1  -2.25180768894335        4.71658691892183        1.64138820731087     
         213           1   4.93584898076201       -3.03425348439540        4.50545966623121     
         214           1  -4.95116021667014        4.42453951286224       -3.79274059959795     
         215           1   1.74513723897855       -5.23950008753234       -2.56389804465753     
         216           1  -4.07892468864764       -1.01658270329386        7.15884738876197     
         217           1   2.64012492859222       -6.98794111743556        3.88300573442010     
         218           1 -0.121022037122361       -3.02145199372567        7.22018439015077     
         219           1  -1.84282528462442       -1.08634436777851       -6.25803687136580     
         220           1  -4.50407964860228       -5.41622548635629      -0.708052656104681     
         221           1  -4.80578651818009        4.90029048566234        1.93558116381123     
         222           1  -7.77415112577779       -7.77774114300688        1.83018837846821     
         223           1  0.596440375383736        7.42145843568030       -3.27459482518347     
         224           1  -6.96219468542455        5.43153733981177        4.12473487022685     
         225           1  -1.82726044985017       -4.96597984006320        1.88070641899583     
         226           1  -7.09447372419055       -5.56616587490629        1.74063477487277     
         227           1  -4.92530154846586        7.01704236823716       -6.02412035726666     
         228           1  -7.53663448250652       0.638931787832903        1.33204722709719     
         229           1  -2.02073820936961        6.48694233158216       -3.29793646284289     
         230           1  0.421140914495464        6.61210235192233        4.57508174998166     
         231           1   2.98760946367347        4.41747553175699       -3.12270535291682     
         232           1  -5.43345469864288        6.83168545078008       -3.64672050513719     
         233           1   5.88675112806695        2.92299078892959       -5.26753430136367     
         234           1  0.317754174307906       -5.47804628079727       -5.98990480742386     
         235           1   3.71037935855295        6.77471580440054       -6.03522662887540     
         236           1  -7.06506797738270       -1.00350818365703        2.10519824621766     
         237           1  -3.97581412231813        1.35915009556147       -7.58873726181978     
         238           1   5.89196622531569        7.51141564112820      -0.477790292667713     
         239           1   5.67212616898703        6.75466092972408       -3.05022579780511     
         240           1  -4.88286939010410        6.95125605098510      -0.861128253276596     
         241           1   4.62590213327740        6.59383359407061        1.84468093728243     
         242           1   5.84383836932554       0.788989681007694        7.15935212039903     
         243           1  0.262824251715760       -1.03412375537284        5.23272968885987     
         244           1  0.135011192013781       -2.37794121596516      -0.698731094139462     
         245           1   6.16159787823827       -4.74062782762825      -0.652239376270602     
         246           1  -4.37052651420806       0.852972710261851       -3.20728756136939     
         247           1  -5.33189089970351        3.95487804133043        4.50935579881047     
         248           1  -7.23229937272934      -0.341843416709534      -0.671679415484943     
         249           1   5.84677445728106       -4.58636513422569        1.70953351725031     
         250           1   1.03395993526079       0.625779438491483        4.04369342890921     
         251           1  0.152726713350422       -6.03464865429605        3.74093036076774     
         252           1  0.466982217120207        4.88289015191549       -2.86192109667199     
         253           1   3.00265948276215        4.82489818744275        7.48004916723420     
         254           1   2.66518354781420       -6.83786445533906        7.75416839666098     
         255           1   1.59679488311884      -0.762289869348311       -3.55305431393484     
         256           1   5.73159363929952       -1.64152450639109       -1.15492744433486     
         257           2   1.94311694629432       -4.13694214478463        3.22417534916464     
         258           2  -3.59302017875618       -2.06687800596941       -1.54632577601215     
         259           2  -3.37765956271466        1.61330964628340       0.624627482950375     
         260           2   2.02986838960605        1.23043585493836        3.22744163476397     
         261           2   1.74704434274200        3.78232875162764       0.584122538066158     
         262           2   4.51264414960517       -4.02533081875086       -4.59280744733484     
         263           2   4.27733531401219       -1.90678676873543       -1.84619976480285     
         264           2 -0.870005271132408       -6.18974283284474        5.99632057062170     
         265           2   4.82303473359917       0.229489868761315        6.01898493646411     
         266           2  -3.47911029451645       0.812813106815571       -4.66872587309370     
         267           2  -5.98150266040743       -7.55485510145481       -4.68404743649710     
         268           2  -3.44703625567189        4.00966149619308       -4.60612397843907     
         269           2   4.41408690181651      -0.454950108007405       0.591161711118980     
         270           2 -0.840029975624129       -2.08170076485075       -7.26327480926072     
         271           2   4.41992561973571        1.62657429985183       -1.81044469112024     
         272           2   4.74484595176438       -4.24769123731056        3.19441923038746     
         273           2 -0.845788020617135       -4.12971946513522       -1.85519668806125     
         274           2   1.84651063209181       -3.93431653095425       -1.84426944563973     
         275           2  -3.41395663444516        3.83405089469678       -1.84769405634678     
         276           2   4.46727329800344       -6.29969510574019       -4.56760581939571     
         277           2   4.08510086559053        1.91096758105360        5.99782872999705     
         278           2   1.85986510883868       -6.36192184102076        5.99047951855374     
         279           2 -0.878000677813890        5.92263487109316        3.25446039221615     
         280           2   4.63560416250661       -6.13891684829682        5.94885665530736     
         281           2  -6.05946344764948       0.292714820825436       -7.26999524323578     
         282           2   4.03174405173601       -6.52074327831399       -7.21848557533017     
         283           2   6.99993543967443        3.82355545250537       -7.27476596342499     
         284           2 -0.841776876432893       -4.02258243811345       0.588545866644950     
         285           2 -0.888645160679898        3.81209995025680       -7.23621144361767     
         286           2  -3.38860895011080       -1.99734866895487       -4.62970514689716     
         287           2  -6.40758593604485       -5.60692421852433        6.04840693404999     
         288           2   6.99176550614556        1.38606965525283       -7.28088783426048     
         289           2  -6.20823429769603        1.69234069798358       -1.91413746082403     
         290           2   3.57199672342128        5.92798836053268       0.612371192764679     
         291           2 -0.825384227001229       -6.16651645800652       -4.65891781509353     
         292           2  -3.39185538966990       -6.18209794804297       -1.76126144699026     
         293           2   6.88157189656554       -4.04970146572086       0.638766874177965     
         294           2 -0.856587370909574       -1.51833014822550       -1.83011693466870     
         295           2  -6.01671432601778       -7.62680594207054        6.07736093731274     
         296           2   4.55114100599947       -4.11604585486494       -7.29851761197905     
         297           2   1.86403629404370        3.56524291032396        3.31646587097832     
         298           2   4.50496197188404        4.04969524580262       -1.81964521316750     
         299           2   6.93207252120020       0.291318540102228        3.25843734871223     
         300           2  -6.02875737424841        1.32512188305582       0.767089165147878     
         301           2 -0.882088849050406        2.57565098720417        6.01879266620627     
         302           2   3.36563977368547        1.48563230722863       -4.70370612238916     
         303           2   6.97976508667753        5.83160043216836        6.02031560287316     
         304           2  -1.04671966957916       -7.43806549301618        3.24730310414555     
         305           2  -1.08516243790902      -0.246059350408234       0.808649947255957     
         306           2   6.92713542663908       -3.02637664092544       -1.82305884146663     