ITEM: TIMESTEP
 0
ITEM: NUMBER OF ATOMS 
           3
ITEM: BOX BOUNDS pp pp pp
  -7.84960420785000        7.84960420785000     
  -7.84960420785000        7.84960420785000     
  -7.84960420785000        7.84960420785000     
ITEM: ATOMS id type x y z  
           1           1   2.00000000000000       0.000000000000000E+000  0.000000000000000E+000
           2           1  -2.00000000000000       0.000000000000000E+000  0.000000000000000E+000
          17           2  0.000000000000000E+000  0.000000000000000E+000  0.000000000000000E+000
