ITEM: TIMESTEP
 0
ITEM: NUMBER OF ATOMS 
           4
ITEM: BOX BOUNDS pp pp pp
  -43.500000000000000        43.500000000000000     
  -43.500000000000000        43.500000000000000     
  -43.500000000000000        43.500000000000000     
ITEM: ATOMS id type x y z  
           1           1  -20.518750446448376       -25.941408287238602       -16.844177196924981     
           2           2  -20.398958563816404       -27.279448183016161       -17.220394199602001     
           3           3  -19.265935478499596       -27.801935609085742       -16.900768445239809     
           4           4  -19.417303474323102       -28.775379424762260       -15.556869557723665     
