ITEM: TIMESTEP
 0
ITEM: NUMBER OF ATOMS 
           6
ITEM: BOX BOUNDS pp pp pp
   0.0000000000000000        0.0000000000000000     
   0.0000000000000000        0.0000000000000000     
   0.0000000000000000        0.0000000000000000     
ITEM: ATOMS id type x y z  
           1           1   1.0070819935909900       0.31294524558211401       0.74029926003981905     
           2           2   1.0982301054251900       0.24346855046911700        1.6906133399869501     
           3           2   1.8553181459276999        3.2457611472182180E-002  0.39670945084907300     
           4           1  -1.0070819935909900      -0.31294524558211401      -0.74029926003981905     
           5           2  -1.2273524973230401       0.45086291197884498       -1.2735063901776600     
           6           2 -0.31230722058680299       -6.5096404347286807E-003 -0.15753251880084901     
ITEM: TIMESTEP
 0
ITEM: NUMBER OF ATOMS 
          15
ITEM: BOX BOUNDS pp pp pp
   0.0000000000000000        0.0000000000000000     
   0.0000000000000000        0.0000000000000000     
   0.0000000000000000        0.0000000000000000     
ITEM: ATOMS id type x y z  
           1           1   1.4561189210899159       0.30607532946559463       0.68103593616408642     
           2           2   1.7557756290594551       0.33319705287970769        1.5897174587496572     
           3           2   2.1530890682520281      -0.15278659284512011       0.21209010750426421     
           4           1 -0.81732668781243922       -1.1277149745900292      -0.49612559412548657     
           5           2  -1.0002650760557579      -0.40327019732884467       -1.0944107692776042     
           6           2  -2.3141177031623647E-002 -0.86160452961907630       -3.2782907183598324E-002
           7           1   3.0051265885907861       -1.6068528501418271       -1.5210868705765506     
           8           2   3.9210986453834429       -1.8543415969890402       -1.6474844629548264     
           9           2   2.8795698760170128      -0.85061128721527779       -2.0942936835420616     
          10           1  0.10179360310689470      -0.23407196356932919       -3.5103814816940337     
          11           2 -0.35205735330859567       -9.9959869792339007E-002  -4.3424061782406502     
          12           2  0.38888620437447469       -1.1467856942581967       -3.5380098024795545     
          13           1   2.4284007682747308       0.96655335652430596       -2.3939654182313896     
          14           2   1.5339275698566301       0.67479105070795176       -2.5701025642750976     
          15           2   2.3257224996827790        1.7100388793371051       -1.7998961541495506     
ITEM: TIMESTEP
 0
ITEM: NUMBER OF ATOMS 
          15
ITEM: BOX BOUNDS pp pp pp
   0.0000000000000000        0.0000000000000000     
   0.0000000000000000        0.0000000000000000     
   0.0000000000000000        0.0000000000000000     
ITEM: ATOMS id type x y z  
           1           1  0.92901946963599735      -0.22181301221823069       0.41725641289747822     
           2           2   1.2368039450290356      -0.31702445793704598        1.3186083626439078     
           3           2   1.6847731123689116      -0.45796045345995912      -0.12061221185230481     
           4           1  -1.2497891771213401       -1.4437616472499322      -0.66165926507908956     
           5           2  -1.3983456024694509      -0.87332517184883596       -1.4158244035074272     
           6           2 -0.53754813047170491       -1.0236076811663948      -0.17956469318363985     
           7           1   3.1035312469458067      -0.99946628075216881       -1.2822868039243589     
           8           2   3.9888120884399929       -1.1870592159999931       -1.5942460357615627     
           9           2   2.9223938502537030      -0.11251444579261731       -1.5933133718916197     
          10           1 -0.35529811826105723       0.16891449813338197       -3.0096102957768132     
          11           2 -0.93400031145591456       0.32179613881638947       -3.7565793818396371     
          12           2  -3.2801097634981291E-002 -0.72361257249899713       -3.1346020550079490     
          13           1   2.1599467488023922        1.1436550375658436       -2.5133859594023260     
          14           2   1.2419103203591171       0.89918007290357960       -2.6303173397264605     
          15           2   2.1407609104581042        1.8427258971336147       -1.8598083611707099     
ITEM: TIMESTEP
 0
ITEM: NUMBER OF ATOMS 
          15
ITEM: BOX BOUNDS pp pp pp
   0.0000000000000000        0.0000000000000000     
   0.0000000000000000        0.0000000000000000     
   0.0000000000000000        0.0000000000000000     
ITEM: ATOMS id type x y z  
           1           1   1.4391048736317849      -0.86767211662421451        1.5639454455889177     
           2           2   1.9264429845106394      -0.95190847739544371        2.3834804608320592     
           3           2   2.0669757357683531       -1.1144958213043010       0.88491077836846621     
           4           1 -0.76386567291932794       -1.9794549436672928        8.2589654991885586E-002
           5           2  -1.0125260161894050       -1.3201738206633917      -0.56529017532882331     
           6           2  -6.6167082493744325E-002  -1.5654991962896727       0.59061441435952311     
           7           1   2.6655683587191681      -0.65144237496623880       -1.0117985716133777     
           8           2   3.4535481748174139      -0.79779133744729758       -1.5351546937735163     
           9           2   2.3611157672107637       0.21728713101616595       -1.2741904635601065     
          10           1 -0.68416225436999623       0.61766510529405294       -2.9653549514018254     
          11           2  -1.2987208864896405       0.70205145245121126       -3.6943463588276630     
          12           2 -0.32368809150998840      -0.26439558993464635       -3.0562348052917172     
          13           1   1.8242334181905917        1.6147081237888878       -2.5643593502622366     
          14           2  0.92287262655303937        1.4164954998274133       -2.8183127298436945     
          15           2   1.7699286552825300        2.4671802203574154       -2.1324170424275395     
ITEM: TIMESTEP
 0
ITEM: NUMBER OF ATOMS 
          15
ITEM: BOX BOUNDS pp pp pp
   0.0000000000000000        0.0000000000000000     
   0.0000000000000000        0.0000000000000000     
   0.0000000000000000        0.0000000000000000     
ITEM: ATOMS id type x y z  
           1           1   1.4137259478300999      -0.28336417890160270        1.6258871830146215     
           2           2   1.9019039936723174      -0.33679608908958164        2.4475069652325669     
           3           2   2.0702992787178132      -0.43587540338086889       0.94626697468194121     
           4           1  -1.1860577991257841      -0.67965521868282597       0.57053546985026660     
           5           2  -1.4715441403205263      -0.16964182046807744      -0.18749864721409656     
           6           2 -0.49614519943153251      -0.14996056320759396       0.97013028556169512     
           7           1   2.8315576074030857      -0.40680418008344466      -0.64428695631767141     
           8           2   3.4907580561705345      -0.48902838342586052       -1.3334355533049262     
           9           2   2.5037579162722485       0.48829744007368237      -0.73130587429883975     
          10           1 -0.63036078842577836        1.6317115011479153       -3.4003574588974126     
          11           2 -0.97652608932775831        2.0509085933652251       -4.1881868962301372     
          12           2 -0.31932116666735222       0.77747769872677397       -3.6999752228859690     
          13           1   1.4867145877084822        2.0746757155216802       -1.3690539913522106     
          14           2  0.77669867188902764        1.7722978754343719       -1.9353373842812354     
          15           2   1.0815652832431197        2.7367762672051619      -0.80895690998892544     
ITEM: TIMESTEP
 0
ITEM: NUMBER OF ATOMS 
          15
ITEM: BOX BOUNDS pp pp pp
   0.0000000000000000        0.0000000000000000     
   0.0000000000000000        0.0000000000000000     
   0.0000000000000000        0.0000000000000000     
ITEM: ATOMS id type x y z  
           1           1   1.2537514673477181       0.27505424062229888        1.5999666940047830     
           2           2   1.5836866766238054       0.44884128140653862        2.4815406626177050     
           3           2   1.9746635706519795      -0.17348802434632832        1.1580080807325097     
           4           1  -1.1959613183172098      -0.34334869883280567       0.32102912873186262     
           5           2  -1.2981440305612109       0.21811418967078502      -0.44744335493461718     
           6           2 -0.37420355608759981       -5.7126971079982658E-002  0.71980618772213179     
           7           1   2.8383544618306344      -0.29801131753956384      -0.73118717364037789     
           8           2   3.4848817028419488      -0.13886886297422688       -1.4188702734655936     
           9           2   2.2540111627001869       0.45906497870349988      -0.77131485022684954     
          10           1 -0.81671925015261726       0.60367685748768740       -2.4138230412976798     
          11           2  -1.1552340745782619       0.87206929800185751       -3.2679922584431562     
          12           2 -0.58061988710466905      -0.31692913969991199       -2.5277244403698087     
          13           1   1.2348377158437112        1.8958021429588781       -1.1119623107474768     
          14           2  0.59731250216691989        1.7828035997987288       -1.8169621484567202     
          15           2  0.77193794920472869        2.4091275208107255      -0.44980469922372768     
ITEM: TIMESTEP
 0
ITEM: NUMBER OF ATOMS 
          15
ITEM: BOX BOUNDS pp pp pp
   0.0000000000000000        0.0000000000000000     
   0.0000000000000000        0.0000000000000000     
   0.0000000000000000        0.0000000000000000     
ITEM: ATOMS id type x y z  
           1           1   1.4170106503978930       0.30168330875880606       0.93857816871181465     
           2           2   1.4934394184101867       0.63152949949492454        1.8338948578657330     
           3           2   2.1010426307688359      -0.36426306833976174       0.86895408768804594     
           4           1 -0.63478974730312376      -0.47773308514404067      -0.67652867397123007     
           5           2 -0.80126965699706043       -3.5282028561784023E-003  -1.4911733875019300     
           6           2  0.10173960065075414       -1.5736807565511532E-002 -0.27613411968062446     
           7           1   3.8312687467135000      -0.62587321627485437      -0.53630133449926043     
           8           2   4.4087524628784358      -0.68149550362631262       -1.2976491910760879     
           9           2   3.2757843423152644       0.13373580138583160      -0.71141003433711414     
          10           1 -0.73572728286379074       0.64094927506125843       -3.2410352846822406     
          11           2  -1.0842696814166570        1.2890078081666658       -3.8532200395400173     
          12           2 -0.59222459707575459      -0.14055018085944188       -3.7747931132592800     
          13           1   1.7981686035107878       0.99356125798534778       -1.8924379783515388     
          14           2   1.0868000930362687       0.83795249088363566       -2.5137049048061506     
          15           2   1.3820905183475398        1.4484739750221169       -1.1602048959760518     
ITEM: TIMESTEP
 0
ITEM: NUMBER OF ATOMS 
          15
ITEM: BOX BOUNDS pp pp pp
   0.0000000000000000        0.0000000000000000     
   0.0000000000000000        0.0000000000000000     
   0.0000000000000000        0.0000000000000000     
ITEM: ATOMS id type x y z  
           1           1   1.4323644966319804       0.76849068850494329       0.90853952773458713     
           2           2   1.8802003182578670        1.1226831331801244        1.6767990079912420     
           3           2   1.9749526990074686        2.9239226557510163E-002  0.63406337457948792     
           4           1  -1.2196087408436329       -1.0000393091947561       0.88100718885042295     
           5           2  -1.5795905318971939      -0.73973993436511853        3.3133857760201231E-002
           6           2 -0.46460274035560861      -0.42547283980128664        1.0077792341725482     
           7           1   3.3859731198141345      -0.59816867202184221      -0.43008077569366199     
           8           2   3.9026874842053876       -1.1566941889974998       -1.0108452309755080     
           9           2   3.0363425059514508        8.4784958774316035E-002  -1.0024133818173619     
          10           1 -0.21511915729850475       0.65148318657127979       -3.4655183529726434     
          11           2 -0.71020405613560222        1.3029625826788229       -3.9622047524147952     
          12           2 -0.16479289498419916      -0.10669048400613669       -4.0476453086830322     
          13           1   2.2391005273000060        1.0110328388391729       -2.1622497274306838     
          14           2   1.5068066356151950       0.86741460595111453       -2.7617088998379691     
          15           2   1.8368892050485242        1.3808176971118444       -1.3762999511440728     
ITEM: TIMESTEP
 0
ITEM: NUMBER OF ATOMS 
          15
ITEM: BOX BOUNDS pp pp pp
   0.0000000000000000        0.0000000000000000     
   0.0000000000000000        0.0000000000000000     
   0.0000000000000000        0.0000000000000000     
ITEM: ATOMS id type x y z  
           1           1  0.89505271300851708       0.25524991221407589       0.88618946183332858     
           2           2   1.1511780328559429       0.28414131670476073        1.8080337801865722     
           3           2   1.3785350173266784      -0.48819939812662366       0.52596755194382538     
           4           1  -2.0829873757930906       -1.3826120425332693        1.5077538346939592     
           5           2  -2.6017461107614244      -0.82579704813563626       0.92716940766471756     
           6           2  -1.1747074635798525       -1.1994462935970849        1.2675252987413972     
           7           1   3.1504847403681517       -1.4693265278146539      -0.10551680721719897     
           8           2   3.7708488258678003       -2.0583396297363641      -0.53498602286221386     
           9           2   2.7632791732230069      -0.96528815897616693      -0.82123254094843334     
          10           1  -6.1298482126386361E-002  0.17665654607191283       -3.8125406020933279     
          11           2 -0.43742409708417740       0.97542294966284593       -4.1823156611049166     
          12           2 -0.36428665612637612      -0.52204382306719577       -4.3924093808536915     
          13           1   2.0238589327262457       0.34138422774518495       -1.7938703004863714     
          14           2   1.2858974280220268       0.10936644511207456       -2.3576188314083564     
          15           2   1.6329226848305156       0.85173826095852367       -1.0846880595467931     
ITEM: TIMESTEP
 0
ITEM: NUMBER OF ATOMS 
          15
ITEM: BOX BOUNDS pp pp pp
   0.0000000000000000        0.0000000000000000     
   0.0000000000000000        0.0000000000000000     
   0.0000000000000000        0.0000000000000000     
ITEM: ATOMS id type x y z  
           1           1   1.2270169930713455        2.7077344760812715E-002  0.78021536389276713     
           2           2   1.3460075489960595       0.27691302503094539        1.6965423909225468     
           3           2   1.8478836449727223      -0.68861152500472866       0.64403209674956752     
           4           1  -2.1604876293106132       -1.1997601934881466       0.72327151073981366     
           5           2  -2.5864075872708856      -0.66425492915711737        5.3900058341575886E-002
           6           2  -1.2294306412914822      -0.99449454252633085       0.63823776687704770     
           7           1   2.3837875230329035       -2.3228574963411570      -0.14027777826721349     
           8           2   3.2682229226342732       -2.6469965791925749      -0.31039455845131547     
           9           2   2.0691106674914788       -2.0248573496214863      -0.99374495932434970     
          10           1   1.2553581786515788        9.7710153442961439E-002  -4.9321531154584068     
          11           2  0.82000067630816087       0.78259258365330064       -5.4397274863071283     
          12           2   1.2035660191089834      -0.68117655289364487       -5.4861250559951396     
          13           1   1.8941348281739763      -0.60602817514498530       -2.4121103006872300     
          14           2   1.4020448175526550      -0.21037115964455036       -3.1315092077839739     
          15           2   1.5255431598965863      -0.20963012007231441       -1.6226544095754525     
ITEM: TIMESTEP
 0
ITEM: NUMBER OF ATOMS 
          15
ITEM: BOX BOUNDS pp pp pp
   0.0000000000000000        0.0000000000000000     
   0.0000000000000000        0.0000000000000000     
   0.0000000000000000        0.0000000000000000     
ITEM: ATOMS id type x y z  
           1           1  0.82552104323825803       -2.1611184927836757        5.9939204472659866E-002
           2           2   1.1233169366983433       -1.6830382428749504       0.83388282030398586     
           3           2   1.6003236356415997       -2.6350291321882002      -0.24225525057831665     
           4           1  -1.6721699984067431       -2.8912152664688842       0.29406693463547956     
           5           2  -2.2034503541323716       -2.3826138761458866      -0.31854848255740648     
           6           2 -0.78385131903156668       -2.5538334069753263       0.17876192712424135     
           7           1   3.0731001687140616       -4.0168072189008406      -0.28982541019226415     
           8           2   3.9011590528517259       -4.4653742436739972      -0.46110865130722900     
           9           2   2.6094599994751961       -4.0409496131154370       -1.1268957646247566     
          10           1 -0.65748194888176825       -2.8196715131412478       -4.9010873436396958     
          11           2  -1.5253457160521222       -2.7027393101816362       -5.2875730245437778     
          12           2 -0.48231454364294724       -3.7570762780204974       -4.9836738251217376     
          13           1   1.2254162863105416       -3.0411394208547136       -2.5182405694245555     
          14           2  0.61729426913354857       -2.8942771534052012       -3.2427065290280130     
          15           2  0.90516671471853039       -2.4734339229279190       -1.8172537510614546     
ITEM: TIMESTEP
 0
ITEM: NUMBER OF ATOMS 
          15
ITEM: BOX BOUNDS pp pp pp
   0.0000000000000000        0.0000000000000000     
   0.0000000000000000        0.0000000000000000     
   0.0000000000000000        0.0000000000000000     
ITEM: ATOMS id type x y z  
           1           1  0.85490381094441648       -1.7226711444409271      -0.84922766542321915     
           2           2   1.1002926539440736       -1.1257580281354240      -0.14232534733797755     
           3           2   1.6160066259189321       -2.2931114806413468      -0.95670867710773633     
           4           1  -1.7171452563895868       -1.5774876217688372      -0.18336096041532568     
           5           2  -2.0279783603238806       -1.0089127700656688      -0.88787303235599935     
           6           2 -0.78881881002095378       -1.7110570392444751      -0.37467499462912557     
           7           1   3.7234600233035353       -2.6330542820991840       -2.1085211711699854     
           8           2   4.4800165103190013       -3.0370075513121115       -2.5335810237166640     
           9           2   3.0452279012559673       -2.6239552774359867       -2.7839101233575310     
          10           1 -0.87818386566512685       -2.7065214871737813       -4.9228484081574164     
          11           2  -1.7995958189800867       -2.5207102114357940       -5.1036964717271838     
          12           2 -0.78843122065322491       -3.6470715234486435       -5.0762822113975092     
          13           1   1.3794490333830272       -2.0688968685900457       -3.4331260287609049     
          14           2  0.63211087756320516       -1.9665843307188307       -4.0224049656406855     
          15           2   1.0854973034289770       -1.6899974620476832       -2.6047182425958653     
ITEM: TIMESTEP
 0
ITEM: NUMBER OF ATOMS 
          15
ITEM: BOX BOUNDS pp pp pp
   0.0000000000000000        0.0000000000000000     
   0.0000000000000000        0.0000000000000000     
   0.0000000000000000        0.0000000000000000     
ITEM: ATOMS id type x y z  
           1           1  0.51074186464984861       -1.9445715905811254      -0.24725360233525195     
           2           2  0.88350624162402569       -1.2272954082856133       0.26538022172552150     
           3           2  0.89103861215237645       -2.7355369113558456       0.13481980052086412     
           4           1  -1.9162390821037887       -3.1897309785968124       0.10026918009191335     
           5           2  -2.4101189455288443       -2.7226272243636891      -0.57362146629325450     
           6           2  -1.0071068499858125       -2.9265419384639495       -4.2706180294004109E-002
           7           1   2.6131420502383844       -3.7769684059333213       -1.3365471217039613     
           8           2   3.1781599512475949       -4.0827913297779039       -2.0460955349854646     
           9           2   1.7928393109834320       -3.5389335117636156       -1.7686057347745057     
          10           1  -2.0260215311861427       -3.3502669257349420       -4.1057084953051897     
          11           2  -2.8745212843972916       -3.5065485933963427       -3.6911532527215156     
          12           2  -2.0507584459874075       -3.8726696253917803       -4.9074037893149240     
          13           1  0.51714008325308647       -3.0594972341294171       -2.7872497215954679     
          14           2 -0.18313438227845674       -2.9655601590780867       -3.4330231639537767     
          15           2  0.27766894910918627       -2.4558590438829144       -2.0840382660660883     
ITEM: TIMESTEP
 0
ITEM: NUMBER OF ATOMS 
          15
ITEM: BOX BOUNDS pp pp pp
   0.0000000000000000        0.0000000000000000     
   0.0000000000000000        0.0000000000000000     
   0.0000000000000000        0.0000000000000000     
ITEM: ATOMS id type x y z  
           1           1  0.79124973756223926       -4.6617294081415510      -0.85906963899182198     
           2           2  0.99184655197107052       -3.7835653171234327      -0.53530956224377668     
           3           2   1.6064725741476189       -4.9611487456233991       -1.2615514734277837     
           4           1  -1.6987089862749725       -4.7405752305167379       0.40884551328802354     
           5           2  -2.1135372320697372       -4.1394138555267350      -0.20982594048354083     
           6           2 -0.78839473195684551       -4.7940480089971409       0.11781207818790346     
           7           1   2.5660171754804431       -4.5188302282348083       -2.7361359948015056     
           8           2   3.2414958041957638       -4.6054684122569487       -3.4087832182539035     
           9           2   1.7480915998742428       -4.4368523824823995       -3.2265533941411486     
          10           1  -2.2808142102201296       -4.2980836054442602       -5.3974139922355233     
          11           2  -3.2245497388702478       -4.3557463285052096       -5.5466456990966977     
          12           2  -1.8893291679752353       -4.6095583437212557       -6.2134745225356856     
          13           1   5.9601657164001842E-002  -4.4158211620679362       -3.8105950143366667     
          14           2 -0.75999407370956129       -4.3955081659459996       -4.3046416316941407     
          15           2 -0.20612105359439165       -4.2901715871307466       -2.8996419610428648     
ITEM: TIMESTEP
 0
ITEM: NUMBER OF ATOMS 
          15
ITEM: BOX BOUNDS pp pp pp
   0.0000000000000000        0.0000000000000000     
   0.0000000000000000        0.0000000000000000     
   0.0000000000000000        0.0000000000000000     
ITEM: ATOMS id type x y z  
           1           1  0.28142836151247325       -4.3362624859056718      -0.89925955256439183     
           2           2  0.54263065276470668       -3.4867520089035930      -0.54382017305104546     
           3           2  0.98930109674986499       -4.5737122173225657       -1.4982300491307063     
           4           1  -2.3306796929974971       -4.6594334728527649       0.52086905165166875     
           5           2  -2.8400791061046258       -4.0386937212585465       -1.1678185795359342E-004
           6           2  -1.5178924948704429       -4.7754989259867839        2.8794239098817204E-002
           7           1   2.4559928313795969       -4.8353311542796691       -2.8661146746904755     
           8           2   3.0445702436216524       -4.9667167795826925       -3.6094492475862774     
           9           2   1.5776819080237054       -4.9039951839965896       -3.2403966712341892     
          10           1  -2.4166377841698057       -5.7964357775799149       -5.2137923919806379     
          11           2  -3.2625076314998012       -5.9240024388775288       -5.6432837054007594     
          12           2  -1.7892211353203471       -5.7318480196028032       -5.9337983713071951     
          13           1 -0.19799458495842115       -5.4480430450865862       -3.5148670100543704     
          14           2 -0.88608170567698064       -5.8406295187172343       -4.0521228290302824     
          15           2 -0.52641605451778262       -5.5143474162577055       -2.6182205308352380     
ITEM: TIMESTEP
 0
ITEM: NUMBER OF ATOMS 
          15
ITEM: BOX BOUNDS pp pp pp
   0.0000000000000000        0.0000000000000000     
   0.0000000000000000        0.0000000000000000     
   0.0000000000000000        0.0000000000000000     
ITEM: ATOMS id type x y z  
           1           1 -0.58025460113899319       -3.1974718154177602      -0.41592945944314819     
           2           2 -0.46648118156006413       -2.2482473982555597      -0.36838521835188293     
           3           2  0.30992529494217225       -3.5427859139380744      -0.48352950363948810     
           4           1  -2.5255588546379926       -1.9885620437254929       0.94174468861994642     
           5           2  -3.1401720579636661       -1.9882969408013571       0.20793110192435765     
           6           2  -1.8153169985969806       -2.5649687027415000       0.65970974509560842     
           7           1   1.8343814771577620       -4.1618430470240986       -1.1810028850678282     
           8           2   2.7786260491442754       -4.0822083970138312       -1.3162521024103391     
           9           2   1.5243069005692085       -4.6572810246401906       -1.9390443135459126     
          10           1  -2.0138131498626253       -6.7858958727042218       -4.8925634765018771     
          11           2  -2.8040883792080247       -7.3258470047354969       -4.8803292253499864     
          12           2  -2.1390269965708346       -6.1940011433313833       -5.6343275642906940     
          13           1  0.26365506192402111       -5.8379347466259590       -2.6953912492690626     
          14           2 -0.29175376174570378       -6.1525358008633946       -3.4086787475910838     
          15           2 -0.27069958458573173       -5.9476936512469551       -1.9088482214506004     
ITEM: TIMESTEP
 0
ITEM: NUMBER OF ATOMS 
          15
ITEM: BOX BOUNDS pp pp pp
   0.0000000000000000        0.0000000000000000     
   0.0000000000000000        0.0000000000000000     
   0.0000000000000000        0.0000000000000000     
ITEM: ATOMS id type x y z  
           1           1  -1.8681952168148404       -4.2420486500334054       0.78824598531605261     
           2           2  -1.5627065106162679       -4.0000515756814812        1.6625147691524540     
           3           2  -1.0744874955398211       -4.2616154202544427       0.25357128543690510     
           4           1  -4.3273974420808150       -4.3164463605278058        2.0473094161986327     
           5           2  -5.0909085438288848       -4.6649960780641262        1.5870967132952449     
           6           2  -3.6544991890192762       -4.2384547592292661        1.3710276027857853     
           7           1  0.44743421342943190       -4.3288579082046006      -0.48446425345407074     
           8           2   1.3125453739108790       -4.1161831310533170      -0.83458417458696321     
           9           2   9.8404291436204161E-002  -4.9840290861274434       -1.0887495181863789     
          10           1  -3.6272490228208980       -7.4767015144962663       -2.4023707443362152     
          11           2  -4.3794264366137412       -8.0592445807350632       -2.5077488927211768     
          12           2  -3.8569363372756711       -6.6949331999675277       -2.9046792949079072     
          13           1  -1.1536324578537120       -6.2955147979460548       -1.5162000861002642     
          14           2  -1.6026818686056135       -6.9066460291362386       -2.1002421093891086     
          15           2  -1.8427129197371204       -5.9629761171979885      -0.94103229940069921     
ITEM: TIMESTEP
 0
ITEM: NUMBER OF ATOMS 
          15
ITEM: BOX BOUNDS pp pp pp