ITEM: TIMESTEP
 0
ITEM: NUMBER OF ATOMS 
           6
ITEM: BOX BOUNDS pp pp pp
  0.000000000000000E+000  0.000000000000000E+000
  0.000000000000000E+000  0.000000000000000E+000
  0.000000000000000E+000  0.000000000000000E+000
ITEM: ATOMS id type x y z  
           1           1   1.00708199359099       0.312945245582114       0.740299260039819     
           2           2   1.09823010542519       0.243468550469117        1.69061333998695     
           3           2   1.85531814592770       3.245761147218218E-002  0.396709450849073     
           4           1  -1.00708199359099      -0.312945245582114      -0.740299260039819     
           5           2  -1.22735249732304       0.450862911978845       -1.27350639017766     
           6           2 -0.312307220586803      -6.509640434728681E-003 -0.157532518800849     
ITEM: TIMESTEP
 0
ITEM: NUMBER OF ATOMS 
          60
ITEM: BOX BOUNDS pp pp pp
  0.000000000000000E+000  0.000000000000000E+000
  0.000000000000000E+000  0.000000000000000E+000
  0.000000000000000E+000  0.000000000000000E+000
ITEM: ATOMS id type x y z  
           1           1  0.804377224441873       0.190630750641769       0.364036881657936     
           2           2  0.902524661291899       0.136981399876315        1.31467912130582     
           3           2   1.61682555180849      -0.178423693842626       1.768680967179470E-002
           4           1  -1.62045434373480      -0.501857916261440       -1.00796679181520     
           5           2  -1.93021226807066       0.230269851055938       -1.54113730922485     
           6           2 -0.866787084103525      -0.151145506112904      -0.533395082663629     
           7           1  0.244998273322943       -3.67677837664974        2.64911617135347     
           8           2   1.10891307490587       -3.28540614526061        2.77838655505918     
           9           2  0.250291688942529       -4.45806468019245        3.20210399368562     
          10           1   1.09516584337264      -0.288518672276840        3.05743902395642     
          11           2   1.10797749362211       -1.23465804206882        2.91291222869850     
          12           2  0.318391581148839      -0.138556649464526        3.59629427099471     
          13           1  -2.39756945197354       -4.02107579026014      -0.455951060781160     
          14           2  -2.44096006953258       -3.57827980789486       0.391563430132720     
          15           2  -2.74405990737560       -3.38198555171402       -1.07863868014607     
          16           1  -4.58272608877868       -2.74177370216229        1.56667062604877     
          17           2  -5.16445173534593       -3.50178042813083        1.55194348754569     
          18           2  -4.21246804245772       -2.74002675856324        2.44935843457603     
          19           1  -5.76407760811180       -4.54277154907167       -1.13053087181879     
          20           2  -5.05533373605419       -4.85473988182413       -1.69319393545495     
          21           2  -6.52487456482083       -5.06078066838910       -1.39337375828570     
          22           1   1.06514744648784        3.12845781245115       0.792113722285020     
          23           2  0.645139664160363        2.79580811344019        1.58531576497798     
          24           2  0.705792565685848        2.59051449416596       8.662602150200252E-002
          25           1   5.07879862539988        3.45334179637961        3.75356891672071     
          26           2   4.86573767980285        4.34605903190106        4.02540123794880     
          27           2   6.03530073865157        3.43368523561748        3.72276036329741     
          28           1  -2.10565427015899       0.288052837197874        1.94289072714824     
          29           2  -1.26040068566461      -5.122505410785508E-002   2.23728626103172     
          30           2  -2.11226319791556       0.129569885554098       0.998924988303766     
          31           1  -2.30099126314969        2.67965842491675      -0.330544527769413     
          32           2  -1.54234086477402        3.00311584468238       0.155312149289781     
          33           2  -2.80944069474384        3.46514154935693      -0.532354529333424     
          34           1  -6.22591507766027       0.949338527793019        2.15682279601788     
          35           2  -6.93011197147385        1.57905005873962        2.00254394932725     
          36           2  -6.62869098413061       9.546380581918423E-002   1.99902112194217     
          37           1  -1.54750855683211       -1.60902722839088        4.30452508621465     
          38           2  -1.12994932247072       -1.94186175640620        5.09894141457173     
          39           2  -2.48587303687110       -1.69724370505934        4.47162324851865     
          40           1   4.96449549738827        2.36171968852404       0.611483305087951     
          41           2   4.67164209401178        1.49498557111871       0.329986069122122     
          42           2   5.27004838589004        2.23193194685738        1.50927192967689     
          43           1   3.42386525786976       -3.22620006203444        3.53973371110980     
          44           2   3.81817531950627       -4.09753851949348        3.50073745686530     
          45           2   2.78037594401307       -3.28536867385536        4.24588696524620     
          46           1   3.40975621582766        2.56053708982768       -1.98605146935646     
          47           2   3.38402051568559        2.88558016236392       -1.08609785125473     
          48           2   4.24213719339546        2.09202817838436       -2.04828609060114     
          49           1   3.10005339474554       -6.83981223611762        2.31292546809533     
          50           2   2.95460057053756       -7.73506574017248        2.61886088514838     
          51           2   3.93778559197391       -6.58679109109404        2.70076165245399     
          52           1   2.24918589243657       -1.58787696332314        5.50088104008960     
          53           2   2.39332072247895       -1.58245857169254        6.44715141994982     
          54           2   2.58008945576760      -0.740573873052653        5.20286737430749     
          55           1 -0.646154845451053       -1.83999535957764        6.88233456168699     
          56           2  -1.27193002256442       -2.49362730427656        7.19442837543190     
          57           2  -1.18987205991851       -1.11374986712267        6.57709544987367     
          58           1  -4.52218487027461      -0.142244039086080      -0.814169282897121     
          59           2  -3.83607259580406      -0.706976944349317      -0.458418622273977     
          60           2  -4.94829190570025      -0.675758836261406       -1.48500949901102     
ITEM: TIMESTEP
 0
ITEM: NUMBER OF ATOMS 
          60
ITEM: BOX BOUNDS pp pp pp
  0.000000000000000E+000  0.000000000000000E+000
  0.000000000000000E+000  0.000000000000000E+000
  0.000000000000000E+000  0.000000000000000E+000
ITEM: ATOMS id type x y z  
           1           1  0.718408211475250      -0.124775195591700       0.337883525866298     
           2           2  0.781572516173952      -7.141774227953215E-003   1.28572554265534     
           3           2   1.53146456045592      -0.568466097036509       9.640972323622773E-002
           4           1  -1.46886914042653      -0.925730968837540       -1.02249406433287     
           5           2  -1.83522552359427      -0.209011756218118       -1.54049832182051     
           6           2 -0.679873747350618      -0.556328729671356      -0.625933734240015     
           7           1  0.553219274103086       -3.57677461181943        2.62752466877131     
           8           2   1.47661791411460       -3.32465939701141        2.62535439524112     
           9           2  0.498838429960207       -4.28321262768701        3.27112384024948     
          10           1  0.747324496125287      -0.158085053361819        3.19454067826367     
          11           2  0.733498955402992       -1.11234246103493        3.26825291825626     
          12           2 -8.061973409310175E-002  0.124635388105934        3.58288246538471     
          13           1  -2.28947272959498       -4.35042377585847      -0.317956855676235     
          14           2  -2.36410626166558       -3.96387543685191       0.554535011049148     
          15           2  -2.60461964158449       -3.66797119670650      -0.910555152224843     
          16           1  -4.15811660999771       -3.01020231732836        1.06394584744181     
          17           2  -4.76716949593979       -3.74795049631609        1.03210175025081     
          18           2  -3.78920815143467       -3.04148372340655        1.94664617192029     
          19           1  -5.40573583226655       -4.68292972819202       -1.23680933643019     
          20           2  -4.75183378840338       -5.02353722514579       -1.84724400947101     
          21           2  -6.22950011452738       -5.07791016728819       -1.52252720426957     
          22           1   1.73118423356734        2.71724515078581       0.666692361001137     
          23           2   1.30525470068889        2.34063867296645        1.43674653694361     
          24           2   1.40036214989636        2.19993880943099      -6.759827502092300E-002
          25           1   5.65185016764170        2.99014028700349        3.31851272823846     
          26           2   5.43532732435207        3.87456486148199        3.61371244096239     
          27           2   6.60611998191524        2.94428599328611        3.37765953976731     
          28           1  -2.24810579676585      -0.470221368801108        1.62329118492665     
          29           2  -1.41011740129723      -0.862107284194062        1.86912185505661     
          30           2  -2.30578534599726      -0.601093034054557       0.676835947298241     
          31           1  -2.04945183364846        2.05428155019300      -0.527937007094941     
          32           2  -1.30125973380204        2.29917678764644       1.655059092729039E-002
          33           2  -2.46881138652073        2.88617958615440      -0.747743884099137     
          34           1  -6.48176499734249        1.12831301346023        2.19427643621984     
          35           2  -7.07192925217778        1.81828996846049        1.89117613288235     
          36           2  -6.96289797531639       0.315555692300384        2.03881443312252     
          37           1  -1.11378627036711       -1.29619671626821        4.67099350928697     
          38           2 -0.777061678321998       -1.67061771843755        5.48503116335867     
          39           2  -2.05762789715351       -1.22334805225882        4.81272528306147     
          40           1   4.90446245210964        2.46159978300719       0.674277476393448     
          41           2   4.71186960615844        1.55711637466765       0.427195304379936     
          42           2   5.18748576262562        2.40598082746236        1.58698563209749     
          43           1   3.41148351261275       -3.05449609523458        3.71337036853366     
          44           2   3.79296265829707       -3.92450086776902        3.59590889750910     
          45           2   2.79879740892743       -3.15742076394151        4.44155584691294     
          46           1   3.57232784230409        2.74770875599435       -1.75036869755522     
          47           2   3.35016781518723        3.21949612361809      -0.947689781610564     
          48           2   4.45326853941605        2.40796663576969       -1.59304540011605     
          49           1   3.24332457056443       -6.59675599743898        2.56212520666068     
          50           2   3.03891362388278       -7.52153655793829        2.70079358733661     
          51           2   4.10562695508384       -6.47919446254590        2.96067974893276     
          52           1   1.73306168399175       -2.03683924713537        5.71295116323877     
          53           2   1.94581304293204       -2.00349157292144        6.64561221200921     
          54           2   1.92248094173913       -1.15519898132231        5.39191747888228     
          55           1  -1.17386047386215       -2.40274299073895        7.71237431091927     
          56           2  -1.68147690227096       -3.13165871889554        8.06908044046492     
          57           2  -1.83155956039008       -1.79524317852827        7.37383667675680     
          58           1  -4.95944033571984      -0.299028623333823      -0.596280330868121     
          59           2  -4.37913162155328      -0.968053236264666      -0.233127878645785     
          60           2  -5.46461557028134      -0.758098392150402       -1.26731294538430     
ITEM: TIMESTEP
 0
ITEM: NUMBER OF ATOMS 
          60
ITEM: BOX BOUNDS pp pp pp
  0.000000000000000E+000  0.000000000000000E+000
  0.000000000000000E+000  0.000000000000000E+000
  0.000000000000000E+000  0.000000000000000E+000
ITEM: ATOMS id type x y z  
           1           1  0.788579817984258      -0.266477480704988       0.145456381498718     
           2           2  0.791722538221835      -0.143402163516164        1.09470578476896     
           3           2   1.64871663020195      -0.637546615984805      -5.127745166169514E-002
           4           1  -1.61319108956708      -0.823710506941158      -0.849286718838858     
           5           2  -1.96788833300440      -0.150839525967470       -1.43037737309372     
           6           2 -0.846896618823611      -0.414250338560507      -0.447581609813551     
           7           1  0.795074652915067       -2.99408909598819        2.07565472123076     
           8           2   1.73059066216012       -2.80619002247366        2.15138829779097     
           9           2  0.647820377945287       -3.72528450590245        2.67557245811094     
          10           1  0.785594586596893      -0.187624970157728        2.95757261809070     
          11           2  0.889858086605321       -1.13768823628131        3.00992481889054     
          12           2 -4.926596106242400E-003 -4.610553569416287E-003   3.46532632119731     
          13           1  -1.42278907356351       -4.31553382858874      -0.850849927762929     
          14           2  -1.44651698257869       -3.94225910706366       3.024870950995738E-002
          15           2  -1.58297509771611       -3.57134268942893       -1.43115314683224     
          16           1  -3.30525997887552       -3.25477083095607        1.15189720832719     
          17           2  -3.82098697829581       -4.05613204619872        1.24177326060902     
          18           2  -2.90400658403323       -3.12989124449739        2.01191618603259     
          19           1  -5.10199921051183       -4.85523150005028       -1.15959764599686     
          20           2  -4.41815855435234       -5.08716575258072       -1.78792900721204     
          21           2  -5.86496572721692       -5.36221760316931       -1.43722874229386     
          22           1   1.66970550698396        2.80475679390158       0.303579964217103     
          23           2   1.17130782334005        2.47986903253959        1.05343297078278     
          24           2   1.54585480885151        2.13943171003295      -0.373350887013154     
          25           1   6.09416691506656        2.80257404595605        3.66993814184299     
          26           2   5.70198226538608        3.66012212767080        3.83435933300256     
          27           2   7.03161628415120        2.93669810973864        3.80933418166201     
          28           1  -1.66006778443800      -0.749335821693915        2.00780257037960     
          29           2 -0.762969833734106       -1.06548514663966        2.11502528802476     
          30           2  -1.86196957119037      -0.908358193825215        1.08575083990678     
          31           1  -2.81068305708273        2.59996067123634       -1.02863862392022     
          32           2  -1.96904065147908        2.82198858507555      -0.630425732911019     
          33           2  -3.27850323613480        3.43338103343413       -1.08142706911205     
          34           1  -6.90477368819325        1.75287922053802        1.61814669749058     
          35           2  -7.56289049567274        2.33266771606354        1.23479384675218     
          36           2  -7.27214728344666       0.874497985884744        1.51958256547716     
          37           1  -1.01607106963391       -1.53537209408750        5.01195835291986     
          38           2 -0.694753637629940       -2.03543666358532        5.76223988289599     
          39           2  -1.88563068786963       -1.23616136048608        5.27761009342130     
          40           1   5.56403242127345        2.54618435289480       0.859540372094993     
          41           2   5.38962467097854        1.62235131931634       0.679689593096710     
          42           2   5.87128896514646        2.56036963225467        1.76597516516987     
          43           1   3.01812992275827       -3.32190269123198        3.42548876287528     
          44           2   3.36702794945096       -4.21322739565355        3.41898658956644     
          45           2   2.36203063708206       -3.32608491662557        4.12244505729116     
          46           1   3.64948280806060        2.47522733903108       -1.70090707513678     
          47           2   3.55799202272571        2.86545567038636      -0.831664228973251     
          48           2   4.48524503329012        2.00975272646471       -1.66824627392838     
          49           1   3.95233319660557       -6.78520755302444        3.22239770830239     
          50           2   3.66032007491793       -7.67773702106886        3.40773881392818     
          51           2   4.83281961780200       -6.73854015328232        3.59495328253259     
          52           1   1.55715850945182       -2.80833785667149        5.79165730912025     
          53           2   1.77960431637790       -2.75627305690529        6.72119426890524     
          54           2   1.65838738512626       -1.91245806143862        5.47012356715342     
          55           1  -1.52032823975849       -2.40970159071344        7.68182879202224     
          56           2  -1.89597535175294       -3.21513215924077        8.03736034692556     
          57           2  -2.26806046803745       -1.93734742611439        7.31575516830850     
          58           1  -4.66047412819692      -0.917252624357878      -0.129616873037051     
          59           2  -3.98603928974029       -1.50763588575946       0.206265685802819     
          60           2  -5.09516351084049       -1.41762154234886      -0.820202078877346     
ITEM: TIMESTEP
 0
ITEM: NUMBER OF ATOMS 
          60
ITEM: BOX BOUNDS pp pp pp
  0.000000000000000E+000  0.000000000000000E+000
  0.000000000000000E+000  0.000000000000000E+000
  0.000000000000000E+000  0.000000000000000E+000
ITEM: ATOMS id type x y z  
           1           1  0.932558174883578      -9.430322014826914E-002  5.813311138188926E-002
           2           2   1.05437142985385       3.404111097376387E-002  0.998835563586044     
           3           2   1.73757684160459      -0.523416999574004      -0.231760231999750     
           4           1  -1.23244922690429       -1.24631917850997       -1.10576367237240     
           5           2  -1.48899389425680      -0.532534698808806       -1.68965440717781     
           6           2 -0.460972915355980      -0.914911136939596      -0.646171624245310     
           7           1  0.581525699150932       -3.00968331305530        2.59967226349744     
           8           2   1.51989227346791       -2.85448384117044        2.49190800165113     
           9           2  0.525320056954405       -3.67118482848970        3.28922901305709     
          10           1  0.701093658964987      -0.173771302546162        2.91332636937745     
          11           2  0.866035850410643       -1.11440903705383        2.97833841365679     
          12           2  3.507678022155623E-002 -3.655262640118902E-004   3.57859608459139     
          13           1  -2.06985228983063       -4.56801721750654       -1.81068013661183     
          14           2  -2.07069377040827       -4.21487312475744      -0.921005824480223     
          15           2  -1.96752537533649       -3.80051077136664       -2.37343665385869     
          16           1  -3.85653213518732       -2.92738985103427       0.511781714372651     
          17           2  -4.51391527259052       -3.60815641197445       0.368128868373682     
          18           2  -3.66917940306375       -2.96875592769516        1.44955548318233     
          19           1  -4.61341640274467       -5.16983658133323      -0.833259511357269     
          20           2  -3.85836156706177       -5.30331781879846       -1.40624013437748     
          21           2  -5.29275944778244       -5.73894194257280       -1.19498310053441     
          22           1  0.927738851561984        2.99502436001913       0.493943941202629     
          23           2  0.603361919562512        2.66337184650952        1.33121215167605     
          24           2  0.835274503922892        2.25701870640431      -0.108575634950913     
          25           1   6.06542913054829        2.91566544479215        4.24932739074752     
          26           2   5.69971275387594        3.79975566406115        4.27878678698248     
          27           2   6.98603768348150        3.02877564341043        4.48579687130419     
          28           1  -1.83327382615329       -1.41764926395052        1.91152551799318     
          29           2 -0.925419957773449       -1.65833133890562        2.09620180900822     
          30           2  -1.91382926694639       -1.49642559088192       0.960979910842308     
          31           1  -2.35417257839046        1.42202004247903       -1.45076707014093     
          32           2  -1.52466484175076        1.70208373702158       -1.06383932255223     
          33           2  -2.83943543425931        2.23483809334864       -1.59246610646267     
          34           1  -7.07569753330422        2.12556085148344        2.28290906418359     
          35           2  -7.61445879810246        2.73635572395443        1.78001964958418     
          36           2  -7.53511873370172        1.28854798100436        2.21528173777124     
          37           1  -1.19230115126472       -1.05855799870518        5.20127209971712     
          38           2  -1.01985926323547       -1.55331197606033        6.00234271904113     
          39           2  -2.07153859106455      -0.700870178025535        5.32469327857916     
          40           1   5.52190320260612        2.25739932274261        1.35817988002905     
          41           2   5.24582966266982        1.34458924234219        1.27576023633643     
          42           2   5.70748958977054        2.36873809403531        2.29059245550532     
          43           1   3.23394612098309       -3.09877495675723        3.17853344463573     
          44           2   3.76420617134182       -3.89460150320259        3.21996081440975     
          45           2   2.65748830417622       -3.15454642637903        3.94064745750944     
          46           1   4.34230319222222        2.77086450855108       -1.47001808285320     
          47           2   4.28973051685890        3.12599240667733      -0.582689434731455     
          48           2   5.16054528661161        2.27430078583919       -1.48168788386966     
          49           1   4.17835500611741       -6.91719050778750        3.65069869777363     
          50           2   3.84412443966168       -7.79862295378701        3.81682699634431     
          51           2   5.04610313400527       -6.90947876490933        4.05466101726503     
          52           1   1.72163208218361       -2.45306014174966        5.56515578448179     
          53           2   1.98020607623224       -2.43652149035062        6.48662081507798     
          54           2   1.71083978950335       -1.53270166586972        5.30237138179652     
          55           1  -1.89151149596501       -2.48889195286943        7.61140089408447     
          56           2  -2.23930971399968       -3.34220431004225        7.87048825508088     
          57           2  -2.65972668721375       -1.99201730253559        7.32998866657780     
          58           1  -5.14572189743990      -0.197406975021188      -0.154750944813331     
          59           2  -4.46202686858294      -0.662399861476700       0.327508905331841     
          60           2  -5.46994939910285      -0.837348129722029      -0.788457253512831     
ITEM: TIMESTEP
 0
ITEM: NUMBER OF ATOMS 
          60
ITEM: BOX BOUNDS pp pp pp
  0.000000000000000E+000  0.000000000000000E+000
  0.000000000000000E+000  0.000000000000000E+000
  0.000000000000000E+000  0.000000000000000E+000
ITEM: ATOMS id type x y z  
           1           1  0.523257652756829      -0.174139261531693      -0.121506011366365     
           2           2  0.562879429477018       2.109912370493323E-002  0.814733235696188     
           3           2   1.29070695168966      -0.722330902643784      -0.285027686326129     
           4           1  -1.95561526087141      -0.972485992992383       -1.75276895540153     
           5           2  -2.38208269452231      -0.289692147319877       -2.27060090917403     
           6           2  -1.23541390887359      -0.523426715468003       -1.31017702387866     
           7           1   1.12222663356159       -2.63380972254178        2.03633027618275     
           8           2   2.07229982209933       -2.54598023561052        1.95965721933007     
           9           2  0.996229579258183       -3.41048532818511        2.58142805264624     
          10           1  0.734111272976034       0.133645422198742        2.66051491971289     
          11           2  0.894468087864807      -0.808375695093648        2.60471396547447     
          12           2  9.890573771031859E-002  0.227319130484390        3.37042407188929     
          13           1  -2.46451487029645       -4.13697354862525       -1.73906993235765     
          14           2  -2.69115496699950       -3.63460095943417      -0.956453878218786     
          15           2  -2.17699517774221       -3.47880056926079       -2.37181995853546     
          16           1  -3.54767513999690       -2.88122357942352       0.791641460035975     
          17           2  -4.12512835402722       -3.63957354101574       0.703977548652081     
          18           2  -3.34429686594522       -2.84119788963149        1.72612905321227     
          19           1  -5.06966770294951       -4.84371837207824      -0.586141463224059     
          20           2  -4.34882511529004       -4.91808023292341       -1.21151184745092     
          21           2  -5.73368494486306       -5.45130165816503      -0.911956583974297     
          22           1   1.02786152803685        2.48207598740675       0.915347219537057     
          23           2  0.741182220689865        1.92456503155943        1.63869246825945     
          24           2  0.961976082095284        1.92328636199043       0.140979669506607     
          25           1   6.32373087965261        2.67002406061408        3.98887942186592     
          26           2   6.09794189082879        3.57561703744330        4.20137067543534     
          27           2   7.27248000116577        2.62506183937743        4.10756110996250     
          28           1  -1.34128307376393       -1.78773820352084        1.81681141313793     
          29           2 -0.442280338168437       -2.05044121734156        2.01432862231561     
          30           2  -1.44371534430792       -1.96663925395643       0.882074078853994     
          31           1 -0.880191886398356        1.73244794701718       -2.54658735773167     
          32           2 -7.989041161369725E-002   2.08476262184885       -2.15719840134520     
          33           2  -1.45181577708222        2.49322325963428       -2.65002280287399     
          34           1  -7.52116194132225        1.56612855065387        1.67739598247560     
          35           2  -8.19349029318594        2.11946623520775        1.27987386468491     
          36           2  -7.94543925385964       0.715326563163647        1.78855613787641     
          37           1 -0.469460984767529      -0.763300711312735        5.30865371006498     
          38           2 -0.136010134273202       -1.18390086018869        6.10120521316755     
          39           2  -1.38438687011619      -0.565514455577357        5.50871135516045     
          40           1   5.57685463642362        2.36045072788574        1.28174713139871     
          41           2   5.19653373659854        1.59565416125679       0.849689189880666     
          42           2   5.54769328196168        2.14827132944450        2.21467872496978     
          43           1   3.71750016528305       -3.18449516055443        2.84137838384294     
          44           2   4.15048338662961       -4.03727832426005        2.80241371096392     
          45           2   3.15022668570688       -3.23828666369534        3.61049418368024     
          46           1   3.95825239828381        3.64426857861522       -1.40765239468410     
          47           2   3.72996844431473        3.84192154606818      -0.499328894593263     