ITEM: TIMESTEP
 0
ITEM: NUMBER OF ATOMS 
           6
ITEM: BOX BOUNDS pp pp pp
  0.000000000000000E+000  0.000000000000000E+000
  0.000000000000000E+000  0.000000000000000E+000
  0.000000000000000E+000  0.000000000000000E+000
ITEM: ATOMS id type x y z  
           1           1   1.00708199359099       0.312945245582114       0.740299260039819     
           2           2   1.09823010542519       0.243468550469117        1.69061333998695     
           3           2   1.85531814592770       3.245761147218218E-002  0.396709450849073     
           4           1  -1.00708199359099      -0.312945245582114      -0.740299260039819     
           5           2  -1.22735249732304       0.450862911978845       -1.27350639017766     
           6           2 -0.312307220586803      -6.509640434728681E-003 -0.157532518800849     
ITEM: TIMESTEP
 0
ITEM: NUMBER OF ATOMS 
           6
ITEM: BOX BOUNDS pp pp pp
  0.000000000000000E+000  0.000000000000000E+000
  0.000000000000000E+000  0.000000000000000E+000
  0.000000000000000E+000  0.000000000000000E+000
ITEM: ATOMS id type x y z  
           1           1  0.278835619716732       0.849506003871562        3.26155835054572     
           2           2  0.369983731550932       0.780029308758565        4.21187243049285     
           3           2   1.12707177205345       0.569018369761629        2.91796854135497     
           4           1  -1.65464563558080      -0.593512146180015        1.57044932854530     
           5           2  -1.87491613931285       0.170296011380938        1.03724219840746     
           6           2 -0.959870862576611      -0.287076541032633        2.15321606978427     
ITEM: TIMESTEP
 0
ITEM: NUMBER OF ATOMS 
           6
ITEM: BOX BOUNDS pp pp pp
  0.000000000000000E+000  0.000000000000000E+000
  0.000000000000000E+000  0.000000000000000E+000
  0.000000000000000E+000  0.000000000000000E+000
ITEM: ATOMS id type x y z  
           1           1   1.90946220388683        2.24671193148525        5.03229566281467     
           2           2   2.00061031572103        2.17723523637226        5.98260974276181     
           3           2   2.75769835622355        1.96622429737532        4.68870585362393     
           4           1 -0.316110685159620        1.84309984314867        3.35405960386947     
           5           2 -0.536381188891676        2.60690800070963        2.82085247373163     
           6           2  0.378664087844569        2.14953544829606        3.93682634510843     
ITEM: TIMESTEP
 0
ITEM: NUMBER OF ATOMS 
           6
ITEM: BOX BOUNDS pp pp pp
  0.000000000000000E+000  0.000000000000000E+000
  0.000000000000000E+000  0.000000000000000E+000
  0.000000000000000E+000  0.000000000000000E+000
ITEM: ATOMS id type x y z  
           1           1   1.74233311355448        2.21438249856813        6.62084792810036     
           2           2   1.83348122538869        2.14490580345514        7.57116200804754     
           3           2   2.59056926589122        1.93389486445820        6.27725811890961     
           4           1 -0.409890355578645       0.843382022342213        5.00152669149346     
           5           2 -0.630160859310703        1.60719017990318        4.46831956135562     
           6           2  0.284884417425546        1.14981762748959        5.58429343273241     
ITEM: TIMESTEP
 0
ITEM: NUMBER OF ATOMS 
           6
ITEM: BOX BOUNDS pp pp pp
  0.000000000000000E+000  0.000000000000000E+000
  0.000000000000000E+000  0.000000000000000E+000
  0.000000000000000E+000  0.000000000000000E+000
ITEM: ATOMS id type x y z  
           1           1   1.51499555770917       6.537816410389079E-002   4.31211306159578     
           2           2   1.60614366954338      -4.098531009104775E-003   5.26242714154295     
           3           2   2.36323171004591      -0.215109470006043        3.96852325240504     
           4           1 -0.428801182666912       -1.07721077666690        2.58067747390968     
           5           2 -0.649071686398970      -0.313402619105934        2.04747034377183     
           6           2  0.265973590337278      -0.770775171519519        3.16344421514863     
ITEM: TIMESTEP
 0
ITEM: NUMBER OF ATOMS 
           6
ITEM: BOX BOUNDS pp pp pp
  0.000000000000000E+000  0.000000000000000E+000
  0.000000000000000E+000  0.000000000000000E+000
  0.000000000000000E+000  0.000000000000000E+000
ITEM: ATOMS id type x y z  
           1           1 -0.762909309228121      -0.637310604558270        6.85364772723091     
           2           2 -0.671761197393914      -0.706787299671274        7.80396180717809     
           3           2  8.532684310862026E-002 -0.917798238668211        6.51005791804016     
           4           1  -2.69215903303732       -1.75805594622622        5.01866428971232     
           5           2  -2.91242953676938      -0.994247788665257        4.48545715957446     
           6           2  -1.99738426003313       -1.45162034107884        5.60143103095128     
ITEM: TIMESTEP
 0
ITEM: NUMBER OF ATOMS 
           6
ITEM: BOX BOUNDS pp pp pp
  0.000000000000000E+000  0.000000000000000E+000
  0.000000000000000E+000  0.000000000000000E+000
  0.000000000000000E+000  0.000000000000000E+000
ITEM: ATOMS id type x y z  
           1           1  -1.66127681868476       -1.98427129300864        6.48430905447258     
           2           2  -1.57012870685056       -2.05374798812165        7.43462313441978     
           3           2 -0.813040666348023       -2.26475892711858        6.14071924528184     
           4           1  -3.71819518246100       -3.18616632821900        5.00912161665929     
           5           2  -3.93846568619305       -2.42235817065805        4.47591448652143     
           6           2  -3.02342040945680       -2.87973072307163        5.59188835789822     
ITEM: TIMESTEP
 0
ITEM: NUMBER OF ATOMS 
           6
ITEM: BOX BOUNDS pp pp pp
  0.000000000000000E+000  0.000000000000000E+000
  0.000000000000000E+000  0.000000000000000E+000
  0.000000000000000E+000  0.000000000000000E+000
ITEM: ATOMS id type x y z  
           1           1  -5.51730596467238       -3.37410656495755        8.36767637273342     
           2           2  -5.42615785283818       -3.44358326007054        9.31799045268060     
           3           2  -4.66906981233563       -3.65459419906748        8.02408656354269     
           4           1  -7.61345091886623       -4.68498921934394        7.26965023897439     
           5           2  -7.83372142259828       -3.92118106178299        6.73644310883652     
           6           2  -6.91867614586205       -4.37855361419657        7.85241698021336     
ITEM: TIMESTEP
 0
ITEM: NUMBER OF ATOMS 
           6
ITEM: BOX BOUNDS pp pp pp
  0.000000000000000E+000  0.000000000000000E+000
  0.000000000000000E+000  0.000000000000000E+000
  0.000000000000000E+000  0.000000000000000E+000
ITEM: ATOMS id type x y z  
           1           1  -3.73211148540619      -0.451598148503179        14.1292930937336     
           2           2  -3.64096337357198      -0.521074843616179        15.0796071736808     
           3           2  -2.88387533306944      -0.732085782613126        13.7857032845428     
           4           1  -5.55483673739621       -1.16915028802295        12.2924501857397     
           5           2  -5.77510724112828      -0.405342130462004        11.7592430556018     
           6           2  -4.86006196439202      -0.862714682875563        12.8752169269787     
ITEM: TIMESTEP
 0
ITEM: NUMBER OF ATOMS 
           6
ITEM: BOX BOUNDS pp pp pp
  0.000000000000000E+000  0.000000000000000E+000
  0.000000000000000E+000  0.000000000000000E+000
  0.000000000000000E+000  0.000000000000000E+000
ITEM: ATOMS id type x y z  
           1           1  -1.11095275251547       -2.52194446203896        12.3518577133407     
           2           2  -1.01980464068126       -2.59142115715196        13.3021717932879     
           3           2 -0.262716600178728       -2.80243209614890        12.0082679041500     
           4           1  -3.15335971314172       -3.12520105470461        10.3470440240751     
           5           2  -3.37363021687379       -2.36139289714366        9.81383689393725     
           6           2  -2.45858494013752       -2.81876544955722        10.9298107653141     
ITEM: TIMESTEP
 0
ITEM: NUMBER OF ATOMS 
           6
ITEM: BOX BOUNDS pp pp pp
  0.000000000000000E+000  0.000000000000000E+000
  0.000000000000000E+000  0.000000000000000E+000
  0.000000000000000E+000  0.000000000000000E+000
ITEM: ATOMS id type x y z  
           1           1  -1.54319115491341      -0.338023236881322        10.7190782779689     
           2           2  -1.45204304307921      -0.407499931994323        11.6693923579161     
           3           2 -0.694955002576675      -0.618510870991270        10.3754884687781     
           4           1  -4.18961865573991      -0.306276138757165        9.17182504659809     
           5           2  -4.40988915947199       0.457532018803784        8.63861791646023     
           6           2  -3.49484388273571       1.594663902240515E-004   9.75459178783709     
ITEM: TIMESTEP
 0
ITEM: NUMBER OF ATOMS 
           6
ITEM: BOX BOUNDS pp pp pp
  0.000000000000000E+000  0.000000000000000E+000
  0.000000000000000E+000  0.000000000000000E+000
  0.000000000000000E+000  0.000000000000000E+000
ITEM: ATOMS id type x y z  
           1           1  -2.49165512162390      -0.410359170363227        10.8853538687279     
           2           2  -2.40050700978970      -0.479835865476227        11.8356679486751     
           3           2  -1.64341896928717      -0.690846804473175        10.5417640595372     
           4           1  -4.45040482189933       -1.73517449765864        9.49195701476191     
           5           2  -4.67067532563141      -0.971366340097695        8.95874988462404     
           6           2  -3.75563004889512       -1.42873889251126        10.0747237560009     
ITEM: TIMESTEP
 0
ITEM: NUMBER OF ATOMS 
           6
ITEM: BOX BOUNDS pp pp pp
  0.000000000000000E+000  0.000000000000000E+000
  0.000000000000000E+000  0.000000000000000E+000
  0.000000000000000E+000  0.000000000000000E+000
ITEM: ATOMS id type x y z  
           1           1  -5.97153269207030      -0.442334839547019        18.5225652426883     
           2           2  -5.88038458023610      -0.511811534660019        19.4728793226354     
           3           2  -5.12329653973357      -0.722822473656973        18.1789754334975     
           4           1  -8.38485638133731      -0.736151289620481        16.7838457503778     
           5           2  -8.60512688506939       2.765686794046499E-002   16.2506386202400     
           6           2  -7.69008160833312      -0.429715684473100        17.3666124916168     
ITEM: TIMESTEP
 0
ITEM: NUMBER OF ATOMS 
           6
ITEM: BOX BOUNDS pp pp pp
  0.000000000000000E+000  0.000000000000000E+000
  0.000000000000000E+000  0.000000000000000E+000
  0.000000000000000E+000  0.000000000000000E+000
ITEM: ATOMS id type x y z  
           1           1  -1.55720547417244       0.550677913985302        23.0437205988426     
           2           2  -1.46605736233823       0.481201218872304        23.9940346787898     
           3           2 -0.708969321835709       0.270190279875354        22.7001307896519     
           4           1  -3.33199454711187      -6.807556671814519E-002   21.2208737731537     
           5           2  -3.55226505084394       0.695732590842806        20.6876666430159     
           6           2  -2.63721977410770       0.238360038429234        21.8036405143928     
ITEM: TIMESTEP
 0
ITEM: NUMBER OF ATOMS 
           6
ITEM: BOX BOUNDS pp pp pp
  0.000000000000000E+000  0.000000000000000E+000
  0.000000000000000E+000  0.000000000000000E+000
  0.000000000000000E+000  0.000000000000000E+000
ITEM: ATOMS id type x y z  
           1           1   1.02968857733493        1.30657519024725        25.6911055390577     
           2           2   1.12083668916914        1.23709849513425        26.6414196190049     
           3           2   1.87792472967165        1.02608755613730        25.3475157298669     
           4           1  -1.16499213783146       0.594741896664754        24.4236963707004     
           5           2  -1.38526264156353        1.35855005422571        23.8904892405625     
           6           2 -0.470217364827291       0.901177501812139        25.0064631119394     
