ITEM: TIMESTEP
 0
ITEM: NUMBER OF ATOMS 
           6
ITEM: BOX BOUNDS pp pp pp
   0.0000000000000000        0.0000000000000000     
   0.0000000000000000        0.0000000000000000     
   0.0000000000000000        0.0000000000000000     
ITEM: ATOMS id type x y z  
           1           1   1.0070819935909900       0.31294524558211401       0.74029926003981905     
           2           2   1.0982301054251900       0.24346855046911700        1.6906133399869501     
           3           2   1.8553181459276999        3.2457611472182180E-002  0.39670945084907300     
           4           1  -1.0070819935909900      -0.31294524558211401      -0.74029926003981905     
           5           2  -1.2273524973230401       0.45086291197884498       -1.2735063901776600     
           6           2 -0.31230722058680299       -6.5096404347286807E-003 -0.15753251880084901     
ITEM: TIMESTEP
 0
ITEM: NUMBER OF ATOMS 
           9
ITEM: BOX BOUNDS pp pp pp
   0.0000000000000000        0.0000000000000000     
   0.0000000000000000        0.0000000000000000     
   0.0000000000000000        0.0000000000000000     
ITEM: ATOMS id type x y z  
           1           1  -20.034279241159521        19.309593435600132       -2.7564300414641631     
           2           2  -20.731974016797459        19.058049704730376       -3.3615577895534767     
           3           2  -20.477314047908735        19.431684164717865       -1.9167599551372900     
           4           1  -17.930573889398911        17.614145761572320       -2.7636151773303137     
           5           2  -18.641263045020843        18.244031822409898       -2.8835998198638499     
           6           2  -17.372261221675405        18.007174566002092       -2.0927596310701975     
           7           1  -21.651614925684445        18.211739476498096       -4.9683812581344240     
           8           2  -22.277272274060543        17.662632569034834       -5.4408919210819642     
           9           2  -20.794317892416206        17.920598129116240       -5.2790424121175832     
ITEM: TIMESTEP
 0
ITEM: NUMBER OF ATOMS 
           6
ITEM: BOX BOUNDS pp pp pp
   0.0000000000000000        0.0000000000000000     
   0.0000000000000000        0.0000000000000000     
   0.0000000000000000        0.0000000000000000     
ITEM: ATOMS id type x y z  
           1           1  -25.628676803615896        14.347731618207268       -10.177125902209511     
           2           2  -24.932011958800810        13.886489924444099       -9.7100648420329474     
           3           2  -25.938785334713582        15.006537483812361       -9.5558052358988217     
           4           1  -22.936356223550867        14.063795704788692       -8.5202039042095059     
           5           2  -23.197394490819285        13.655759045743466       -7.6946150550256585     
           6           2  -22.033465272694809        13.776046120909106       -8.6551851912065061     
ITEM: TIMESTEP
 0
ITEM: NUMBER OF ATOMS 
           3
ITEM: BOX BOUNDS pp pp pp
   0.0000000000000000        0.0000000000000000     
   0.0000000000000000        0.0000000000000000     
   0.0000000000000000        0.0000000000000000     
ITEM: ATOMS id type x y z  
           1           1   7.2916452241984775        24.700054473120552       -3.9646156909522872     
           2           2   7.5229058745944553        25.617664322385256       -4.1086383145599807     
           3           2   7.8223054221282542        24.433819761115888       -3.2137823722610377     
ITEM: TIMESTEP
 0
ITEM: NUMBER OF ATOMS 
           6
ITEM: BOX BOUNDS pp pp pp
   0.0000000000000000        0.0000000000000000     
   0.0000000000000000        0.0000000000000000     
   0.0000000000000000        0.0000000000000000     
ITEM: ATOMS id type x y z  
           1           1   2.4946615012181645        15.063720784751496       -21.394480162079969     
           2           2   3.0165631422183483        15.392396589672172       -20.662481027940409     
           3           2   2.6248230065950970        15.707948781579711       -22.090368163572094     
           4           1   2.6004227815608680        16.761322197270186       -23.756084052649484     
           5           2   3.4480656295709395        16.873437446159247       -24.186390470430950     
           6           2   1.9643213937631745        17.096553778284932       -24.387927903242495     
ITEM: TIMESTEP
 0
ITEM: NUMBER OF ATOMS 
          15
ITEM: BOX BOUNDS pp pp pp
   0.0000000000000000        0.0000000000000000     
   0.0000000000000000        0.0000000000000000     
   0.0000000000000000        0.0000000000000000     
ITEM: ATOMS id type x y z  
           1           1   2.3482525089529958        17.925833041395205       -25.924596740558247     
           2           2   2.8981392091747060        18.034473363845990       -25.148675522097854     
           3           2   2.7432971644597934        17.193744207190726       -26.398112842701234     
           4           1   4.0611985476755690        18.729890584410473       -23.612008939786037     
           5           2   4.9120596749933503        18.758016120642573       -23.174429077096786     
           6           2   3.4259384259701768        18.876440609539429       -22.911152672135128     
           7           1  0.79403277141864947        20.094731303093884       -24.635348930046135     
           8           2   1.3357992300709758        19.409461316165842       -25.026662090181325     
           9           2  0.18315977025958669        20.343178158526019       -25.329135767973181     
          10           1   2.0964226228365512        19.231384175506118       -21.803946617371270     
          11           2   1.9997491353130654        20.178724576370435       -21.706826888683892     
          12           2   1.3000614998062938        18.954065210104478       -22.256864924745297     
          13           1   6.2627586468926060        19.228857941549137       -22.070404601948045     
          14           2   6.3269462644710730        20.121307553050908       -22.410471478723700     
          15           2   7.1624814101519449        18.902363827226669       -22.081910365102452     
ITEM: TIMESTEP
 0
ITEM: NUMBER OF ATOMS 
          12
ITEM: BOX BOUNDS pp pp pp
   0.0000000000000000        0.0000000000000000     
   0.0000000000000000        0.0000000000000000     
   0.0000000000000000        0.0000000000000000     
ITEM: ATOMS id type x y z  
           1           1   3.2871041596082025        17.186521592078620       -24.264935942844751     
           2           2   3.9341494542861706        17.516774301361256       -23.641640367177363     
           3           2   3.7270600480003155        16.459035476606331       -24.704747957305692     
           4           1   5.4247381292040089        18.765015307945550       -23.430306982142145     
           5           2   5.8841498931163825        18.618805151969045       -22.603387843732481     
           6           2   4.8191044027441423        19.482654481563976       -23.244743931233305     
           7           1   1.1392194337334718        19.062413221488750       -24.341806961372168     
           8           2   1.5750886263634341        18.220978581575281       -24.206760178108407     
           9           2  0.30145524993368078        18.836577113269229       -24.746011197577712     
          10           1   3.4501652547788750        20.415568754598148       -22.703046054372361     
          11           2   3.3581444497811792        21.362825849647358       -22.600732774068238     
          12           2   2.6623508098579207        20.147626051233598       -23.176107306312918     
ITEM: TIMESTEP
 0
ITEM: NUMBER OF ATOMS 
          12
ITEM: BOX BOUNDS pp pp pp
   0.0000000000000000        0.0000000000000000     
   0.0000000000000000        0.0000000000000000     
   0.0000000000000000        0.0000000000000000     
ITEM: ATOMS id type x y z  
           1           1   1.9659122946876910        18.573073501005869       -23.782187869593468     
           2           2   2.1562847507360381        17.763250927827361       -23.308713933722910     
           3           2   1.0355525640717766        18.511455972564278       -23.998673185116200     
           4           1 -0.65226453394996342        20.472546842865199       -27.537346812565925     
           5           2   3.4193241996419238E-002   20.887269008808293       -27.014840270101427     
           6           2  -1.0901590204241518        21.200074351212017       -27.979143126849070     
           7           1 -0.43644321050212476        18.544177085340589       -24.970664984756844     
           8           2 -0.30067588731885947        19.026811755678178       -25.786056209227517     
           9           2  -1.1725866677112153        17.961273598076861       -25.156536378317146     
          10           1   1.2053540139954761        21.177628502777132       -25.793324774259354     
          11           2   1.3080200909526649        22.072805096345938       -25.470291675384324     
          12           2   1.4776215462000555        20.625331411222284       -25.060474070795625     
ITEM: TIMESTEP
 0
ITEM: NUMBER OF ATOMS 
          12
ITEM: BOX BOUNDS pp pp pp
   0.0000000000000000        0.0000000000000000     
   0.0000000000000000        0.0000000000000000     
   0.0000000000000000        0.0000000000000000     
ITEM: ATOMS id type x y z  
           1           1   1.1453127574093456        19.084604565709864       -23.982440528980565     
           2           2  0.93099342731612633        18.181788949463694       -23.747444725165721     
           3           2  0.34532639687168787        19.424634206811046       -24.383231629338649     
           4           1   1.1112182642080495        18.815748213524948       -28.051517097833706     
           5           2   1.5053932117403142        19.017909582374109       -27.202995600355333     
           6           2   1.2675549489729010        19.597596470504453       -28.581143366116248     
           7           1 -0.69238361458004927        18.175314376771247       -25.905691032829697     
           8           2 -0.40126085402476935        18.496713962343662       -26.759026655360852     
           9           2  -1.4151765022418776        17.580926476581212       -26.106950332374282     
          10           1   2.3127067209921059        20.266995830294118       -26.167608154920096     
          11           2   2.9910310676198595        20.869700742812775       -25.862887448045772     
          12           2   2.0916200232436628        19.744798754136774       -25.396464377319937     
ITEM: TIMESTEP
 0
ITEM: NUMBER OF ATOMS 
          12
ITEM: BOX BOUNDS pp pp pp
   0.0000000000000000        0.0000000000000000     
   0.0000000000000000        0.0000000000000000     
   0.0000000000000000        0.0000000000000000     
ITEM: ATOMS id type x y z  
           1           1   2.2585722825676804        18.218190378798667       -22.026300179227491     
           2           2   2.5636307286603515        17.310927325211530       -22.033003615914289     
           3           2   1.3039365605059463        18.150273959863746       -22.009275544058095     
           4           1  0.46511129462882678        19.083195724486512       -26.023481352832608     
           5           2   1.1438398831695638        19.595918093407921       -25.584533616188448     
           6           2  0.42547795096082081        19.445405157668350       -26.908617141615252     
           7           1 -0.38524878806515672        18.223103465361007       -23.463484491765115     
           8           2  -3.1046857767758635E-002   18.756788065953756       -24.174788631823223     
           9           2 -0.84486469329576430        17.509029958771038       -23.905167734423628     
          10           1   1.8017271966137662        20.447853005073849       -24.074335693131143     
          11           2   2.4628187535628472        21.138301195335192       -24.024625634837577     
          12           2   1.7439111990361740        20.106262516611093       -23.182032443884623     
ITEM: TIMESTEP
 0
ITEM: NUMBER OF ATOMS 
           9
ITEM: BOX BOUNDS pp pp pp
   0.0000000000000000        0.0000000000000000     
   0.0000000000000000        0.0000000000000000     
   0.0000000000000000        0.0000000000000000     
ITEM: ATOMS id type x y z  
           1           1   1.3690322648243323        19.772552254146166       -24.200130133265233     
           2           2   1.9321717939775107        19.417957320428034       -23.512112587205031     
           3           2  0.50975258666237655        19.386879463221828       -24.029464457048594     
           4           1 -0.99352181342298584        19.292206176285855       -26.944052900610341     
           5           2 -0.10945087412274011        19.619887676283206       -27.109205099639475     
           6           2  -1.5139371594074982        19.627217488673239       -27.674235842232815     
           7           1  -1.1116014516942880        18.121314146007958       -24.177200104746412     
           8           2  -1.3402077372004799        18.615659832392804       -24.964342625882121     
           9           2  -1.5124369792550765        17.262069121526007       -24.308580117488436     
ITEM: TIMESTEP
 0
ITEM: NUMBER OF ATOMS 
          12
ITEM: BOX BOUNDS pp pp pp
   0.0000000000000000        0.0000000000000000     
   0.0000000000000000        0.0000000000000000     
   0.0000000000000000        0.0000000000000000     
ITEM: ATOMS id type x y z  
           1           1  0.42585914462153479        19.166457937754782       -24.202520197443445     
           2           2   1.2111664443620611        18.784708486844469       -23.810357422942722     
           3           2 -0.27782751460258587        18.561361285033026       -23.968180771620801     
           4           1  -2.8272406047243583        18.667548622414792       -26.575127859425013     
           5           2  -2.0680825920729569        19.250490605264357       -26.584593400003158     
           6           2  -3.5219233899592068        19.171275240879286       -26.999282503097426     
           7           1  -1.9767690290465385        17.178556286965758       -24.430793541816691     
           8           2  -2.3419459954370687        17.746204670747741       -25.109507719956238     
           9           2  -2.4319593237667703        16.344316158558460       -24.545148444411680     
          10           1 -0.58149298268994676        20.616984623530222       -26.208547251558233     
          11           2  -6.7503758367333355E-002   20.083548645120000       -25.602335263704354     
          12           2  -1.2860720208350884E-002   21.358091185543689       -26.417473683121145     
ITEM: TIMESTEP
 0
ITEM: NUMBER OF ATOMS 
          12
ITEM: BOX BOUNDS pp pp pp
   0.0000000000000000        0.0000000000000000     
   0.0000000000000000        0.0000000000000000     
   0.0000000000000000        0.0000000000000000     
ITEM: ATOMS id type x y z  
           1           1  0.21157101596139993        18.168409974153171       -25.076007238471199     
           2           2  0.88883317609467571        17.515604097135153       -24.898828533818449     
           3           2 -0.61284923857241724        17.693542484906207       -24.970821918342185     
           4           1  -3.0302422527981605        18.689937832745812       -26.839723002713683     
           5           2  -2.2831628873699099        19.280775041103631       -26.744772199815127     
           6           2  -3.6963615467719824        19.214753997682166       -27.283665475583266     
           7           1  -2.3021646946489414        17.005916297022985       -24.789042120764595     
           8           2  -2.5025198621942177        17.644177586517593       -25.473667692278458     
           9           2  -3.0839541669575961        16.456038480508052       -24.737356069530556     
          10           1 -0.41526717897874343        19.814347897510785       -26.811920815188572     
          11           2 -0.18593070906502462        19.222500140606364       -26.095434349011654     
          12           2  0.27760052624863507        20.474769196898222       -26.808775919593817     
ITEM: TIMESTEP
 0
ITEM: NUMBER OF ATOMS 
          12
ITEM: BOX BOUNDS pp pp pp
   0.0000000000000000        0.0000000000000000     
   0.0000000000000000        0.0000000000000000     
   0.0000000000000000        0.0000000000000000     
ITEM: ATOMS id type x y z  
           1           1  0.20581466628969641        19.174488412706232       -24.119695297362387     
           2           2  0.71126542336618082        18.435407959373659       -23.781299884165602     
           3           2 -0.67334799087590214        18.821468553025756       -24.256376828363063     
           4           1  -3.0800109561789721        19.424774298986783       -27.190706854258927     
           5           2  -2.3021776547151664        19.982452548352018       -27.176488369155724     
           6           2  -3.7605151614421408        19.972002288450003       -27.582736692622618     
           7           1  -2.5753910621960299        18.232557235204549       -24.717860094081612     
           8           2  -2.8794940622347442        19.096287629576945       -24.996648564440065     
           9           2  -2.6139484437612310        17.697208496299865       -25.510417281974128     
          10           1 -0.97399028763551432        21.092803834476602       -26.255119079283922     
          11           2 -0.97486287717535947        20.464746368808562       -25.532779201936574     
          12           2  -9.4743884915335100E-002   21.470979617344234       -26.243258195843318     
ITEM: TIMESTEP
 0
ITEM: NUMBER OF ATOMS 
           6
ITEM: BOX BOUNDS pp pp pp
   0.0000000000000000        0.0000000000000000     
   0.0000000000000000        0.0000000000000000     
   0.0000000000000000        0.0000000000000000     
ITEM: ATOMS id type x y z  
           1           1  -5.0949645425043233        23.376521767832983       -25.232327284453902     
           2           2  -5.3809825047017767        24.016192319234634       -25.884437053564824     
           3           2  -5.8132352447778501        23.340190595762838       -24.600663541477079     
           4           1  -3.9915058193933040        21.041647758994703       -24.632255687207493     
           5           2  -3.9168894765873650        20.609152023636881       -25.482909365435937     
           6           2  -4.3411698216481778        21.909525706469736       -24.834133852974919     
ITEM: TIMESTEP
 0
ITEM: NUMBER OF ATOMS 
           9
ITEM: BOX BOUNDS pp pp pp
   0.0000000000000000        0.0000000000000000     
   0.0000000000000000        0.0000000000000000     
   0.0000000000000000        0.0000000000000000     
ITEM: ATOMS id type x y z  
           1           1  -6.1523300050167125        26.066083439516383       -22.652725663354342     
           2           2  -6.6475675566630903        25.916669682620061       -21.847339335751617     
           3           2  -6.7775155394516000        26.484178038124487       -23.244816698709673     
           4           1  -3.7498223144229179        24.654704582693910       -21.729366737316933     
           5           2  -2.8900139226500023        24.780529857275859       -22.130775967047978     
           6           2  -4.3722603075838427        24.909228553958467       -22.410557116521947     
           7           1  -6.3846095087786550        23.962722513242340       -20.277947150132515     
           8           2  -5.4885404594840876        24.066015684724448       -20.598294804441849     
           9           2  -6.3789116335747131        23.124898610791174       -19.815075156272727     
ITEM: TIMESTEP
 0
ITEM: NUMBER OF ATOMS 
           9
ITEM: BOX BOUNDS pp pp pp
   0.0000000000000000        0.0000000000000000     
   0.0000000000000000        0.0000000000000000     
   0.0000000000000000        0.0000000000000000     
ITEM: ATOMS id type x y z  
           1           1  -33.725146479475441        29.828587042453332       -7.8676185752264507     
           2           2  -34.017143578736835        30.393086919503393       -7.1518606393057977     
           3           2  -34.480988617404975        29.273329515814172       -8.0589914616045100     
           4           1  -30.875528207211474        30.793119186012433       -7.4130251613617073     
           5           2  -31.739413592804446        30.562651965953268       -7.7548127284806414     
           6           2  -30.294016601438031        30.112415139676504       -7.7517257572464651     
           7           1  -33.499919641347390        31.876920223233892       -5.6645598954712852     
           8           2  -33.029471770642076        32.053926154672929       -6.4791638122211506     
           9           2  -32.840455403638728        31.982270492478101       -4.9788193614837430     
ITEM: TIMESTEP
 0
ITEM: NUMBER OF ATOMS 
           6
ITEM: BOX BOUNDS pp pp pp
   0.0000000000000000        0.0000000000000000     
   0.0000000000000000        0.0000000000000000     
   0.0000000000000000        0.0000000000000000     
ITEM: ATOMS id type x y z  
           1           1  -28.825083759705127        18.211073642652121       -6.0400725688032981     
           2           2  -29.604036516393236        17.722805498658381       -5.7735042615930849     
           3           2  -29.143318295206303        18.830926213300547       -6.6963814984049659     
           4           1  -29.983205641538607        19.528760618713243       -8.1818232914907849     
           5           2  -30.218820233970774        20.410154691600056       -8.4714128149770822     
           6           2  -29.843383266880512        19.039194119072683       -8.9923824725347519     
ITEM: TIMESTEP
 0
ITEM: NUMBER OF ATOMS 
           6
ITEM: BOX BOUNDS pp pp pp
   0.0000000000000000        0.0000000000000000     
   0.0000000000000000        0.0000000000000000     
   0.0000000000000000        0.0000000000000000     
ITEM: ATOMS id type x y z  
           1           1  -17.278346689442554        5.9695825564405673       -20.592662692400182     
           2           2  -17.007415919521826        6.3234637321568012       -21.439773353048402     
           3           2  -17.970650784766327        6.5603491218990850       -20.296112958402226     
           4           1  -16.572727682602451        6.9488180773905857       -23.216308348634776     
           5           2  -17.222135259974205        6.6920089206142652       -23.870946183966637     
           6           2  -15.746198092427035        6.9811412984286898       -23.698009382416295     
ITEM: TIMESTEP
 0
ITEM: NUMBER OF ATOMS 
           6
ITEM: BOX BOUNDS pp pp pp
   0.0000000000000000        0.0000000000000000     
   0.0000000000000000        0.0000000000000000     
   0.0000000000000000        0.0000000000000000     
ITEM: ATOMS id type x y z  
           1           1  -15.249955343693863        9.8948271900108704       -15.552118920196580     
           2           2  -15.228607100913788        10.053736407451501       -16.495794687153968     
           3           2  -14.988880592960335        10.729156517762160       -15.162290256058732     
           4           1  -15.019323841133138        12.426022337412146       -14.022403062935132     
           5           2  -15.295135950510291        11.786790312561648       -13.365484545365058     
           6           2  -15.205009136582174        13.275892752756297       -13.623062245866841     
ITEM: TIMESTEP
 0
ITEM: NUMBER OF ATOMS 
           9
ITEM: BOX BOUNDS pp pp pp
   0.0000000000000000        0.0000000000000000     
   0.0000000000000000        0.0000000000000000     
   0.0000000000000000        0.0000000000000000     
ITEM: ATOMS id type x y z  
           1           1  -4.6713893871084009        25.733435237346349       -10.421058286164637     
           2           2  -3.7902019821103048        25.857045869536794       -10.773848604742414     
           3           2  -4.5814186421971970        25.012568454411991       -9.7977700813011168     
           4           1  -4.0249174700289840        27.867489039210216       -8.8861305816419147     
           5           2  -4.3794059618591188        27.047649253294704       -9.2302707777684638     
           6           2  -4.5329688731002316        28.550865920177412       -9.3232937667305826     
           7           1  -1.4897389931251157        26.873398333169920       -8.8590734545693337     
           8           2  -2.3215505563493135        27.333063443901448       -8.7449272795887811     
           9           2 -0.91737352127053196        27.242364870244316       -8.1863972314515490     
ITEM: TIMESTEP
 0
ITEM: NUMBER OF ATOMS 
           3
ITEM: BOX BOUNDS pp pp pp
   0.0000000000000000        0.0000000000000000     
   0.0000000000000000        0.0000000000000000     
   0.0000000000000000        0.0000000000000000     
ITEM: ATOMS id type x y z  
           1           1   5.5897357383977013        21.506416528762017       -7.3979745248137135E-002
           2           2   5.9829190000314609        22.378646111688454      -0.10320845440551886     
           3           2   6.0965935322838396        20.993475847904605      -0.70343893749050457     
ITEM: TIMESTEP
 0
ITEM: NUMBER OF ATOMS 
           3
ITEM: BOX BOUNDS pp pp pp
   0.0000000000000000        0.0000000000000000     
   0.0000000000000000        0.0000000000000000     
   0.0000000000000000        0.0000000000000000     
ITEM: ATOMS id type x y z  
           1           1   14.347473267787153        33.351011444900465        4.8443243967865781     
           2           2   14.220612746674671        32.441896802865365        4.5729412436239851     
           3           2   14.717741467936635        33.781976730500858        4.0739983472689545     
ITEM: TIMESTEP
 0
ITEM: NUMBER OF ATOMS 
           3
ITEM: BOX BOUNDS pp pp pp
   0.0000000000000000        0.0000000000000000     
   0.0000000000000000        0.0000000000000000     
   0.0000000000000000        0.0000000000000000     
ITEM: ATOMS id type x y z  
           1           1   21.507619575056538        11.774181814913899       -17.608247127156666     
           2           2   21.633608213369698        11.758840390479444       -16.659498823488974     
           3           2   20.777452349911432        11.174925407369624       -17.763100029425317     
ITEM: TIMESTEP
 0
ITEM: NUMBER OF ATOMS 
           3
ITEM: BOX BOUNDS pp pp pp
   0.0000000000000000        0.0000000000000000     
   0.0000000000000000        0.0000000000000000     
   0.0000000000000000        0.0000000000000000     
ITEM: ATOMS id type x y z  
           1           1   1.7988420448819131       -2.4270775248576961       -18.990509618570904     
           2           2   2.7135652396145695       -2.4229806335291864       -19.272460913122849     
           3           2   1.2981745278784709       -2.3137639118105113       -19.798422919931763     
ITEM: TIMESTEP
 0
ITEM: NUMBER OF ATOMS 
           9
ITEM: BOX BOUNDS pp pp pp
   0.0000000000000000        0.0000000000000000     
   0.0000000000000000        0.0000000000000000     
   0.0000000000000000        0.0000000000000000     
ITEM: ATOMS id type x y z  
           1           1  -5.6628665508750116       -19.792935313522975       -28.459904603993994     
           2           2  -6.5682233647705797       -19.843735320287173       -28.766466569745823     
           3           2  -5.7363960662593776       -19.677789484623140       -27.512504641752962     
           4           1  -6.3143536110191851       -19.788474480581701       -25.879739603906440     
           5           2  -6.0253091606585869       -20.309087466998651       -25.130308310131113     
           6           2  -6.6118654974908875       -18.962705363853633       -25.497870669236207     
           7           1  -2.8036200414624575       -19.259201761341192       -28.841813538489223     
           8           2  -3.7532257835614984       -19.215380448553823       -28.953887028298908     
           9           2  -2.5821176364965317       -20.172052321751991       -29.025858041129194     
ITEM: TIMESTEP
 0
ITEM: NUMBER OF ATOMS 
           9
ITEM: BOX BOUNDS pp pp pp
   0.0000000000000000        0.0000000000000000     
   0.0000000000000000        0.0000000000000000     
   0.0000000000000000        0.0000000000000000     
ITEM: ATOMS id type x y z  
           1           1  -16.236880166531943       -7.0190194425408068       -32.727079586668935     
           2           2  -16.272452099329136       -6.1378451451830403       -33.099233231381902     
           3           2  -15.306696970404726       -7.2447483818190124       -32.733203932746811     
           4           1  -15.129096741015054       -4.8224688000929161       -34.129620673057467     
           5           2  -14.938879878714218       -3.8843650435883421       -34.132895933114270     
           6           2  -15.273799944623560       -5.0412141796598968       -35.050187499411514     
           7           1  -17.080371575842790       -5.8604401337512533       -36.047304265226693     
           8           2  -18.031637820744013       -5.8974673528171770       -35.947537756017418     
           9           2  -16.740214785872141       -6.3080317598624864       -35.272586939699544     
ITEM: TIMESTEP
 0
ITEM: NUMBER OF ATOMS 
           3
ITEM: BOX BOUNDS pp pp pp
   0.0000000000000000        0.0000000000000000     
   0.0000000000000000        0.0000000000000000     