ITEM: TIMESTEP
 0
ITEM: NUMBER OF ATOMS 
           6
ITEM: BOX BOUNDS pp pp pp
  0.000000000000000E+000  0.000000000000000E+000
  0.000000000000000E+000  0.000000000000000E+000
  0.000000000000000E+000  0.000000000000000E+000
ITEM: ATOMS id type x y z  
           1           1   1.00708199359099       0.312945245582114       0.740299260039819     
           2           2   1.09823010542519       0.243468550469117        1.69061333998695     
           3           2   1.85531814592770       3.245761147218218E-002  0.396709450849073     
           4           1  -1.00708199359099      -0.312945245582114      -0.740299260039819     
           5           2  -1.22735249732304       0.450862911978845       -1.27350639017766     
           6           2 -0.312307220586803      -6.509640434728681E-003 -0.157532518800849     
ITEM: TIMESTEP
 0
ITEM: NUMBER OF ATOMS 
          60
ITEM: BOX BOUNDS pp pp pp
  0.000000000000000E+000  0.000000000000000E+000
  0.000000000000000E+000  0.000000000000000E+000
  0.000000000000000E+000  0.000000000000000E+000
ITEM: ATOMS id type x y z  
           1           1   1.23251846190894      -0.206733510175455        1.29379133424561     
           2           2   1.27882214955173      -0.507978441750368        2.20117179453315     
           3           2   2.08754423595367      -0.426712066309150       0.923964076515924     
           4           1  -1.44279723953001      -6.895583860406990E-002 -0.626527718418312     
           5           2  -1.58269530466822       0.750429397508699       -1.10115199741369     
           6           2 -0.700195695496049       0.111368217125300      -5.010944864969782E-002
           7           1   2.84767617834313      -0.584997580410622       -1.40725125627921     
           8           2   2.06243643969050      -0.196612955249385       -1.02152107107313     
           9           2   3.57426606452324      -0.125932744277655      -0.985874401757060     
          10           1   4.41922879872065        1.08628937313408       0.286084661699726     
          11           2   4.43938888332160        1.86853637020103      -0.265200243379867     
          12           2   5.09332797306819        1.24152038060132       0.947692912452894     
          13           1   1.78660008105815        1.83319467716818       -2.48144793657605     
          14           2   2.39881133503356        1.30721521215558       -1.96688518735015     
          15           2   1.74434196976822        2.67126953063098       -2.02093014970619     
          16           1   4.03241562788835      -0.681292002231276       -3.86436169492364     
          17           2   3.77244941145454      -0.838406743624364       -2.95663686638249     
          18           2   3.69832540797562       -1.43911440451528       -4.34427915819745     
          19           1   2.88384768643732        5.47809600551509       -3.58622979230376     
          20           2   3.51350655227011        4.77666875000692       -3.75284719208070     
          21           2   2.38004562550656        5.17400870059385       -2.83128195676301     
          22           1   4.83998847111857        3.71333979520894        2.17074726424057     
          23           2   4.56424234231600        4.53765829105525        2.57161498538568     
          24           2   4.02652376879383        3.30975133293411        1.86805373740137     
          25           1   2.72320716731387        6.74493774645684       0.316096715180849     
          26           2   3.01270577533654        5.84285805932076       0.179441550589748     
          27           2   3.13739401294944        7.00800655127737        1.13797012443117     
          28           1   5.51675166030803       -2.72563142265152      -0.624272939605793     
          29           2   5.57124005628688       -1.92578944854778      -0.101285682432658     
          30           2   5.77810794774818       -2.45511037872977       -1.50446785882027     
          31           1   1.06985218427536        9.97716840091573       -1.15288858941278     
          32           2   1.01814539882184        10.8629308248105       -1.51203086867576     
          33           2   1.49621357359646        10.0873131407813      -0.302996865734918     
          34           1  0.509399132493744       0.293577445719477        5.27821380878021     
          35           2  0.177937307568426        1.19143917022693        5.26374929075585     
          36           2   1.45225486119715       0.387983865374995        5.41364771435407     
          37           1  -1.86734114420851      -0.832103806655994        7.17141688911041     
          38           2  -2.51374880637484       -1.23459787712748        7.75140611101714     
          39           2  -1.07045282544108      -0.780652629505440        7.69919868472469     
          40           1   2.03133466726733        3.97287834862263      -0.361400301097703     
          41           2   1.29271722529278        3.97121971626810       0.247429201595526     
          42           2   1.73892689506933        4.51785984063152       -1.09196495130051     
          43           1   4.05458510522362        10.8719151085690       -2.55169536784260     
          44           2   4.39202519304694        10.4452990876954       -3.33932776805464     
          45           2   3.34607046094401        10.3010801831098       -2.25439698789865     
          46           1  -2.74209233573237        1.37017884894531        4.81087800044706     
          47           2  -2.26197199602769        2.07845618203269        4.38185641726448     
          48           2  -2.07298472573618       0.717819885513173        5.01813298609260     
          49           1   4.65461167686035        4.02573198703413       -6.37649374943769     
          50           2   4.20155302526401        4.72759504911183       -5.90920589350238     
          51           2   5.34598942439893        4.47091871980954       -6.86642989136770     
          52           1   4.75755857132062        3.13654552464800       -9.36375876831316     
          53           2   4.87336777491567        3.44567611493271       -8.46528320019074     
          54           2   5.64666039941572        3.07561348448594       -9.71306818095421     
          55           1   1.26356354124165        2.74287862629523        2.32900762769240     
          56           2  0.819743761987416        2.05918898162509        2.83082862497484     
          57           2   2.02822516089737        2.30665173983504        1.95320109374875     
          58           1   5.61539719568215        2.31699078500060       -2.26955279851781     
          59           2   5.15764327119272        2.15783418583370       -3.09499956334044     
          60           2   5.66941822262404        3.27048684623178       -2.20506380825763     
ITEM: TIMESTEP
 0
ITEM: NUMBER OF ATOMS 
          60
ITEM: BOX BOUNDS pp pp pp
  0.000000000000000E+000  0.000000000000000E+000
  0.000000000000000E+000  0.000000000000000E+000
  0.000000000000000E+000  0.000000000000000E+000
ITEM: ATOMS id type x y z  
           1           1   1.81958331376407       5.513747894020521E-002   1.81066410329239     
           2           2   1.90869839215833      -0.318603037125124        2.68736722833219     
           3           2   2.64719650577041      -0.151534452404681        1.37641192170830     
           4           1  -1.03525942943928       8.794255175773882E-002 -0.800345696263875     
           5           2  -1.18222554285812       0.948428735013663       -1.19302410149274     
           6           2 -0.366728585953881       0.239986962966018      -0.132377996200183     
           7           1   2.39954809084106      -0.377352967587944       -1.07260906627425     
           8           2   1.65002570586744      -9.975844721160093E-003 -0.604119915900863     
           9           2   3.16095015652259       4.856387074788453E-002 -0.678789842266699     
          10           1   4.20621657429954        1.25431037517693       0.650537572441862     
          11           2   4.29217491390162        1.99424004842146       4.941605186128861E-002
          12           2   4.84791767617846        1.42865974434598        1.33905324642302     
          13           1   1.91043777388696        2.23157085974264       -2.14403028226694     
          14           2   2.46173495167305        1.58886733755127       -1.69767230448688     
          15           2   1.85191940836186        2.96446824145857       -1.53111196081603     
          16           1   3.73114016929281       -1.35815695810113       -3.61558013210862     
          17           2   3.37243897108422       -1.38976338481041       -2.72869438738477     
          18           2   3.39882457782410       -2.15062182179977       -4.03724069164661     
          19           1   2.54431252085689        5.25437151579361       -4.35435684730442     
          20           2   3.18803730665998        4.54892765941246       -4.41915812535384     
          21           2   2.07872215370763        5.08001170181505       -3.53639834879292     
          22           1   4.17248674687439        4.54571572055194        2.07102655315115     
          23           2   4.02796287715919        5.35629841419852        2.55918676029956     
          24           2   3.29651142710107        4.26659876053156        1.80458180882879     
          25           1   3.34032098171471        7.78859476522801      -7.103707865950318E-002
          26           2   3.67074552277532        6.89139443473493      -2.539685924719126E-002
          27           2   3.70368018610076        8.21785180504875       0.703521067868097     
          28           1   5.67638807352729       -2.31814215690672      -0.903464558362690     
          29           2   5.70871387150151       -1.49257772526050      -0.420111424529887     
          30           2   5.95607322982226       -2.08851566849909       -1.78962466193870     
          31           1   1.04206631529649        10.3974892974675       -1.62322665528757     
          32           2  0.896302501605927        11.2365561707062       -2.06020666953525     
          33           2   1.60460075816452        10.6093812595699      -0.878318179712502     
          34           1  0.452216200610669       0.841807987076948        5.56516678471381     
          35           2  0.153485803122162        1.75103335864547        5.54781128666746     
          36           2   1.40064651372428       0.902943628506444        5.67907119426072     
          37           1  -1.76479527235337       -1.09185181026440        6.94660660513277     
          38           2  -2.56887691568298       -1.39750964597939        7.36643733093353     
          39           2  -1.09182221131862       -1.18440202973134        7.62097561094349     
          40           1   1.74967369614029        4.03564905231515       9.645249056355322E-002
          41           2  0.993648249692901        3.94987078701952       0.677227363924045     
          42           2   1.44808244475543        4.61081033194596      -0.606728893932333     
          43           1   3.77309340213942        10.9454849149520       -2.29606058211367     
          44           2   4.16540819870849        10.5542233636307       -3.07659587205934     
          45           2   3.11259812891599        10.3117771583553       -2.01607430873809     
          46           1  -2.98272535425914        1.24520569196433        4.91318284405739     
          47           2  -2.47418541181518        1.91535266019801        4.45654074360421     
          48           2  -2.32520210502755       0.673320181708333        5.30921564557663     
          49           1   4.82181156333847        4.37275315314118       -6.35791411064770     
          50           2   4.26256129533631        4.96285283369694       -5.85268807732451     
          51           2   5.48923899829191        4.94286373247212       -6.73968156133780     
          52           1   4.21476370789018        3.16307634754269       -9.29366090022692     
          53           2   4.38685230274896        3.47231232164665       -8.40428445133731     
          54           2   5.08050681101380        2.96442654702207       -9.65039466110050     
          55           1  0.432082861279407        2.48959425480202        2.32551623173517     
          56           2 -3.072135334277140E-002   1.75372903364256        2.72619874347718     
          57           2   1.24198104791053        2.10800252473074        1.98686520363570     
          58           1   5.39906841071201        1.55775125885587       -2.53655761866410     
          59           2   4.97173910427197        1.39028670214553       -3.37654400313904     
          60           2   5.52590753048225        2.50630282396594       -2.51671811203851     
ITEM: TIMESTEP
 0
ITEM: NUMBER OF ATOMS 
          60
ITEM: BOX BOUNDS pp pp pp
  0.000000000000000E+000  0.000000000000000E+000
  0.000000000000000E+000  0.000000000000000E+000
  0.000000000000000E+000  0.000000000000000E+000
ITEM: ATOMS id type x y z  
           1           1   1.79173354405279       7.082744167024094E-002   1.83820704970903     
           2           2   1.84687109619254      -0.331520171756417        2.70498734962040     
           3           2   2.65535817267417      -7.322340327630170E-002   1.45138190198970     
           4           1 -0.397140438027073       0.187478855812951      -0.253899773435686     
           5           2 -0.669527969574120       0.954997684374967      -0.756842832301568     
           6           2  9.550031650998858E-002  0.546587750500453       0.484055325960496     
           7           1   2.86442543488309      -0.714029379947274       -1.36052959908727     
           8           2   2.06378684487165      -0.512675042272680      -0.876106107827696     
           9           2   3.55591963231017      -0.256937003795882      -0.881849983280475     
          10           1   4.35625267017963        1.20379571323104       0.687952660976602     
          11           2   4.51979736026851        1.90431914216498       5.648460964037474E-002
          12           2   4.92576129427162        1.41083826738855        1.42891497300926     
          13           1   1.64571164720689        2.85805694112130       -2.07671706484126     
          14           2   2.10786036019188        2.16451525530905       -1.60591951054958     
          15           2   1.72956148299114        3.62747323785290       -1.51351229980213     
          16           1   3.91318690191560       -1.00251362476839       -3.91426883655396     
          17           2   3.66717302217064      -0.932765276141382       -2.99185668418570     
          18           2   3.58072503675593       -1.85758301085625       -4.18732065066603     
          19           1   1.96030450605377        4.95734034304142       -4.24818417859200     
          20           2   2.53552071336218        4.19322717597950       -4.28677462782939     
          21           2   1.52059467495790        4.88418174964788       -3.40110984616872     
          22           1   4.79205286029880        4.45763941364996        1.79621563344052     
          23           2   4.70497943544084        5.19549745763392        2.39971838041990     
          24           2   3.93675089431595        4.39286593736769        1.37136885664190     
          25           1   3.46815580340456        7.03044024298361      -0.116257598093172     
          26           2   3.82998011370645        6.14431661499264      -0.126253816912606     
          27           2   3.84607130501964        7.43518066952661       0.664509269006608     
          28           1   6.32462317832148       -1.55425565675024       0.155126285124287     
          29           2   6.24049823891787      -0.755776787876696       0.676265739140931     
          30           2   6.72790194772826       -1.26520963529953      -0.663439821936877     
          31           1   1.55253243025887        10.3051989716852       -1.13598360496570     
          32           2   1.29750456179515        11.0868936240131       -1.62603064028865     
          33           2   2.10064757456609        10.6361982804868      -0.424477395467922     
          34           1  0.425508197834843        1.32674516535396        5.65578782634132     
          35           2  0.361844726855216        2.27760896660102        5.56613943572099     
          36           2   1.36573606247148        1.14743502085941        5.64862719493221     
          37           1  -1.52985754974153       -1.46793070037323        6.69866555803546     
          38           2  -2.29819595620902       -1.86892696862925        7.10497815443353     
          39           2 -0.837402055712446       -1.55856930254235        7.35328137864000     
          40           1   1.89034498650534        4.35218974744317       0.505994740483514     
          41           2   1.14560134956678        4.25336271465851        1.09914056810983     
          42           2   1.62478563682450        5.04445635479006      -9.937871132082894E-002
          43           1   3.88758018045734        10.7872352551288       -2.47786530782261     
          44           2   4.21082847987764        10.3957803461080       -3.28934878339401     
          45           2   3.24929035806220        10.1564719087149       -2.14476540772130     
          46           1  -2.72128216853754        1.15320811650182        5.00438177623008     
          47           2  -2.15698712234868        1.78005411783697        4.55175938233333     
          48           2  -2.11718359529549       0.602623360405813        5.50253153299166     
          49           1   4.76453568103403        4.17521482939207       -6.33326197519196     
          50           2   4.16056752227747        4.83353734390591       -5.98965497571093     
          51           2   5.48861247584230        4.68224530708174       -6.70050131120320     
          52           1   3.95803078814103        2.88913791233528       -9.40401342911869     
          53           2   4.15427839572542        3.12076630992824       -8.49623206670485     
          54           2   4.80296789007285        2.63442445204184       -9.77473460051896     
          55           1  0.312104750999913        2.54132104339260        2.91635874000881     
          56           2 -0.224516547092430        1.92182489357928        3.41082202762494     
          57           2   1.03147277684072        2.01297519054115        2.57053777018109     
          58           1   5.76633447605348        1.28759639260461       -2.25821785161391     
          59           2   5.20433500896035        1.08310334295008       -3.00559394945890     
          60           2   5.98570963304825        2.21271599207694       -2.36894321982584     
ITEM: TIMESTEP
 0
ITEM: NUMBER OF ATOMS 
          60
ITEM: BOX BOUNDS pp pp pp
  0.000000000000000E+000  0.000000000000000E+000
  0.000000000000000E+000  0.000000000000000E+000
  0.000000000000000E+000  0.000000000000000E+000
ITEM: ATOMS id type x y z  
           1           1   1.85653624374509       0.627410643428396        1.96580521461089     
           2           2   1.96906627380695       0.139199053788930        2.78141435879488     
           3           2   2.65448967749461       0.449911041359174        1.46781319777536     
           4           1 -0.771029925942950       0.202407772419319      -0.465051371675567     
           5           2 -0.977954002895091       0.908742816594190       -1.07701956672238     
           6           2 -0.278117075407631       0.628910122381282       0.235922598777989     
           7           1   2.47079732431271      -0.528488662222184       -1.01184135330194     
           8           2   1.59529786128201      -0.460437353281031      -0.630919380209878     
           9           2   3.01680852946773       3.148542086410987E-002 -0.459996601476911     
          10           1   4.22142988753683       0.804615261561213       0.702714366761925     
          11           2   4.54023676482598        1.45816854295050       8.024981084051321E-002
          12           2   4.68602759926650        1.00125675461444        1.51617175929417     
          13           1   1.96704754190782        2.42411179803116       -1.60968310154949     
          14           2   2.49338167192927        1.79622844659006       -1.11474197317393     
          15           2   1.96102107998526        3.21263776590041       -1.06707613536443     
          16           1   3.55058644009387      -0.631509223429047       -3.68487127320049     
          17           2   3.20097685656772      -0.670174989212903       -2.79464100093212     
          18           2   3.22840491448964       -1.42943290368132       -4.10409520506985     
          19           1   2.17550656311518        3.80039934683385       -4.95334630321126     
          20           2   2.76966147027513        3.05205382116630       -5.00983312035583     
          21           2   1.59285932605919        3.58969278416156       -4.22371846547625     
          22           1   4.80077148871522        4.21902909347900        1.67430023529833     
          23           2   4.66620781888383        4.86895296780453        2.36402729460742     
          24           2   3.95300906298194        4.15711838144646        1.23418914335626     
          25           1   3.37478468886164        6.79163174110784      -0.901301323078199     
          26           2   3.73375809085458        5.90979768418177      -0.999985834056060     
          27           2   3.87449857532784        7.17488084419317      -0.180442115842053     
          28           1   5.18754690051922       -1.78075495385985      -0.647041173279887     
          29           2   5.16696414010843       -1.10234129938619       2.791297582771620E-002
          30           2   5.61344238195019       -1.36217015891990       -1.39512649484538     
          31           1   1.79606734498210        10.3520990504007      -0.713143519112989     
          32           2   1.56912925307568        11.0934196130725       -1.27454779929077     
          33           2   2.37791574293743        10.7228238912734      -4.963212195637183E-002
          34           1  0.304531767148808        1.70069332850224        5.56925341745318     
          35           2  7.745762632456780E-002   2.63031406989774        5.54747150440118     
          36           2   1.26085910974296        1.68628799298192        5.53101286155564     
          37           1  -1.32423197145175       -1.57487697085911        6.56803456825782     
          38           2  -2.05852320070882       -2.10157786415453        6.88368374002602     
          39           2 -0.623512808458324       -1.73712634831937        7.19961958559717     
          40           1   2.08367767074006        4.53327521696020       0.545286392873755     
          41           2   1.44031387997087        4.37489848501894        1.23610596664588     
          42           2   1.76527299337785        5.31603070852909       9.568196467869408E-002
          43           1   4.22565345932201        10.8431537767729       -2.17000001775071     
          44           2   4.53116770421844        10.2519928849900       -2.85805647342269     
          45           2   3.50430711351300        10.3726792993950       -1.75221412099971     
          46           1  -2.69715095357918       0.189931169410052        4.84371356188280     
          47           2  -2.06786711364331       0.818919486002876        4.49071584746344     
          48           2  -2.17845856247536      -0.370087142295236        5.42126835059619     
          49           1   4.60259046412755        3.60217699459463       -7.00110676405175     
          50           2   4.10818786047616        4.28656785755266       -6.55010005434307     
          51           2   5.32427672532502        4.06696794937474       -7.42462789546482     
          52           1   3.76050816466507        3.14587158893486       -9.48199390653348     
          53           2   4.07468676325228        3.13565064230497       -8.57788153495582     
          54           2   4.54122560237296        2.97653397729491       -10.0092859468137     
          55           1  0.458432255259396        3.09243481892927        2.27151791151119     
          56           2 -0.156541928964155        2.58641206880228        2.80253539624449     
          57           2   1.03773010660916        2.43610677630935        1.88437537975802     
          58           1   5.29330496998494        1.15011569065270       -2.06075263579383     
          59           2   4.61476087212497        1.00538616690593       -2.72019415118047     
          60           2   5.63845820098156        2.02071674763262       -2.25862857348720     
ITEM: TIMESTEP
 0
ITEM: NUMBER OF ATOMS 
          60
ITEM: BOX BOUNDS pp pp pp
  0.000000000000000E+000  0.000000000000000E+000
  0.000000000000000E+000  0.000000000000000E+000
  0.000000000000000E+000  0.000000000000000E+000
ITEM: ATOMS id type x y z  
           1           1   1.78455096336560        1.11227740548692        1.89856516381499     
           2           2   1.86109932577067       0.660247974885930        2.73882796918257     
           3           2   2.54035697976446       0.811098942385345        1.39430269352956     
           4           1 -0.165099023253272      -3.853235578573974E-002  6.357429230033875E-003
           5           2 -0.518723971759836       0.390926578298453      -0.772581759493883     
           6           2  0.276138178518152       0.661794747685744       0.487068901857346     
           7           1   2.72246500381239       -1.29963555326189      -0.951582477315975     
           8           2   1.93151115550516       -1.04882981228362      -0.474381963757666     
           9           2   3.43960649871267      -0.919939484342547      -0.443871130644098     
          10           1   4.15581718990588       0.169316239470331       0.748851569939329     
          11           2   4.50816560331007       0.959990483693485       0.340297197678181     
          12           2   4.54096881728182       0.159918661918164        1.62509454392875     
          13           1   1.55197996016206        2.64155222920050       -2.37262491783052     
          14           2   1.94183451907699        1.96388049312155       -1.82035118043846     
          15           2   1.44273840025552        3.39281486431495       -1.78961327586264     
          16           1   3.77676788387964      -0.732071265304608       -3.51798208835656     
          17           2   3.59703214694299      -0.803265432656085       -2.58050766449051     
          18           2   3.32372228627415       -1.48032129415251       -3.90670232299763     
          19           1   3.16279662588709        3.80898899357561       -4.43561384325094     
          20           2   3.63059936742341        3.00920262479930       -4.67589326253339     
          21           2   2.56177364078609        3.53637425799112       -3.74229976051317     
          22           1   4.63381259852289        3.37932747569208        1.44456885482712     
          23           2   4.71090553217618        3.94597353443171        2.21216299478363     
          24           2   3.78324387995997        3.60213078454364        1.06625234637549     
          25           1   3.58211990765188        7.20416232498176      -0.572926543566254     
          26           2   3.88652256085613        6.30015616448029      -0.652574057636825     
          27           2   4.17156891112492        7.60020648917895       6.889175806591138E-002
          28           1   5.71967081007868       -2.33178281559991      -0.839267270923253     
          29           2   5.72406314536095       -1.63840923629957      -0.179384230590344     
          30           2   6.08035612218894       -1.91871644772215       -1.62381435131817     
          31           1   1.88118475163761        10.4963728071187       -1.02595964712316     
          32           2   1.60416137847424        11.1023296386091       -1.71320502476588     
          33           2   2.32606497295195        11.0492275447441      -0.383569525959704     
          34           1  0.681868177663855        1.60227783144654        5.70345112792044     
          35           2  0.369622941240506        2.50257713389459        5.61291981652773     
          36           2   1.63571261772760        1.67445001782802        5.66875531156745     
          37           1  -1.68881934733464       -1.34835295544435        6.76442825095883     
          38           2  -2.31376321348924       -1.93001079501479        7.19726905520674     
          39           2 -0.838401360736258       -1.59820363312711        7.12580855884986     
          40           1   2.22499505330425        4.16872164881748       0.609240659893196     
          41           2   1.46856363509391        4.09812210597355        1.19152843590650     
          42           2   2.05316888911996        4.95194046650923       8.648269207704998E-002
          43           1   4.50381559709135        10.1531479840824       -2.79814431219531     
          44           2   4.69886946238809        9.44804791746367       -3.41541226510317     
          45           2   3.69265097498594        9.87961477424563       -2.36986475517561     
          46           1  -2.83235224438312       0.574381814523283        5.16622381708888     
          47           2  -2.14839654050862        1.05082724875725        4.69565375499915     