ITEM: TIMESTEP
 0
ITEM: NUMBER OF ATOMS 
           3
ITEM: BOX BOUNDS pp pp pp
  0.000000000000000E+000  0.000000000000000E+000
  0.000000000000000E+000  0.000000000000000E+000
  0.000000000000000E+000  0.000000000000000E+000
ITEM: ATOMS id type x y z  
           1           1  0.000000000000000E+000  0.000000000000000E+000  0.000000000000000E+000
           2           1   1.00000000000000       0.000000000000000E+000  0.000000000000000E+000
           3           1 -0.250717936000000       0.968060182000000       0.000000000000000E+000
ITEM: TIMESTEP
 0
ITEM: NUMBER OF ATOMS 
           3
ITEM: BOX BOUNDS pp pp pp
  0.000000000000000E+000  0.000000000000000E+000
  0.000000000000000E+000  0.000000000000000E+000
  0.000000000000000E+000  0.000000000000000E+000
ITEM: ATOMS id type x y z  
           1           1  -2.14880761292922        4.96737377273061       -6.66876789177943     
           2           1  -1.14880761292922        4.96737377273061       -6.66876789177943     
           3           1  -2.39952554892922        5.93543395473062       -6.66876789177943     
ITEM: TIMESTEP
 0
ITEM: NUMBER OF ATOMS 
           3
ITEM: BOX BOUNDS pp pp pp
  0.000000000000000E+000  0.000000000000000E+000
  0.000000000000000E+000  0.000000000000000E+000
  0.000000000000000E+000  0.000000000000000E+000
ITEM: ATOMS id type x y z  
           1           1  -3.11825408629896        4.65848658043205       -9.14298113979534     
           2           1  -2.11825408629897        4.65848658043205       -9.14298113979534     
           3           1  -3.36897202229896        5.62654676243205       -9.14298113979534     
ITEM: TIMESTEP
 0
ITEM: NUMBER OF ATOMS 
           3
ITEM: BOX BOUNDS pp pp pp
  0.000000000000000E+000  0.000000000000000E+000
  0.000000000000000E+000  0.000000000000000E+000
  0.000000000000000E+000  0.000000000000000E+000
ITEM: ATOMS id type x y z  
           1           1  -4.69000114563958       -1.24207532577523       -5.24224550082252     
           2           1  -3.69000114563961       -1.24207532577523       -5.24224550082252     
           3           1  -4.94071908163960      -0.274015143775221       -5.24224550082252     
ITEM: TIMESTEP
 0
ITEM: NUMBER OF ATOMS 
           3
ITEM: BOX BOUNDS pp pp pp
  0.000000000000000E+000  0.000000000000000E+000
  0.000000000000000E+000  0.000000000000000E+000
  0.000000000000000E+000  0.000000000000000E+000
ITEM: ATOMS id type x y z  
           1           1  -3.21043328856396       -3.51347283639328       -8.31060561373695     
           2           1  -2.21043328856399       -3.51347283639328       -8.31060561373695     
           3           1  -3.46115122456400       -2.54541265439328       -8.31060561373695     
ITEM: TIMESTEP
 0
ITEM: NUMBER OF ATOMS 
           3
ITEM: BOX BOUNDS pp pp pp
  0.000000000000000E+000  0.000000000000000E+000
  0.000000000000000E+000  0.000000000000000E+000
  0.000000000000000E+000  0.000000000000000E+000
ITEM: ATOMS id type x y z  
           1           1  -2.05451128112590       -3.90902448689448       -9.09081098725912     
           2           1  -1.05451128112592       -3.90902448689448       -9.09081098725912     
           3           1  -2.30522921712594       -2.94096430489448       -9.09081098725912     
ITEM: TIMESTEP
 0
ITEM: NUMBER OF ATOMS 
           3
ITEM: BOX BOUNDS pp pp pp
  0.000000000000000E+000  0.000000000000000E+000
  0.000000000000000E+000  0.000000000000000E+000
  0.000000000000000E+000  0.000000000000000E+000
ITEM: ATOMS id type x y z  
           1           1  -9.35572184071219       0.652400694216273       -14.5508709510996     
           2           1  -8.35572184071219       0.652400694216273       -14.5508709510996     
           3           1  -9.60643977671223        1.62046087621630       -14.5508709510996     
ITEM: TIMESTEP
 0
ITEM: NUMBER OF ATOMS 
           3
ITEM: BOX BOUNDS pp pp pp
  0.000000000000000E+000  0.000000000000000E+000
  0.000000000000000E+000  0.000000000000000E+000
  0.000000000000000E+000  0.000000000000000E+000
ITEM: ATOMS id type x y z  
           1           1  -3.21045319649458        2.61521358867968       -18.4494220175723     
           2           1  -2.21045319649461        2.61521358867968       -18.4494220175723     
           3           1  -3.46117113249465        3.58327377067969       -18.4494220175723     
ITEM: TIMESTEP
 0
ITEM: NUMBER OF ATOMS 
           3
ITEM: BOX BOUNDS pp pp pp
  0.000000000000000E+000  0.000000000000000E+000
  0.000000000000000E+000  0.000000000000000E+000
  0.000000000000000E+000  0.000000000000000E+000
ITEM: ATOMS id type x y z  
           1           1  -13.0655404427338        1.33280042724556       -3.92080541471362     
           2           1  -12.0655404427338        1.33280042724556       -3.92080541471362     
           3           1  -13.3162583787338        2.30086060924556       -3.92080541471362     
ITEM: TIMESTEP
 0
ITEM: NUMBER OF ATOMS 
           3
ITEM: BOX BOUNDS pp pp pp
  0.000000000000000E+000  0.000000000000000E+000
  0.000000000000000E+000  0.000000000000000E+000
  0.000000000000000E+000  0.000000000000000E+000
ITEM: ATOMS id type x y z  
           1           1  -21.9359635502410       -4.75638068211088        7.79128822895752     
           2           1  -20.9359635502410       -4.75638068211088        7.79128822895752     
           3           1  -22.1866814862411       -3.78832050011085        7.79128822895752     
ITEM: TIMESTEP
 0
ITEM: NUMBER OF ATOMS 
           3
ITEM: BOX BOUNDS pp pp pp
  0.000000000000000E+000  0.000000000000000E+000
  0.000000000000000E+000  0.000000000000000E+000
  0.000000000000000E+000  0.000000000000000E+000
ITEM: ATOMS id type x y z  
           1           1  -16.1813335349675        6.90205601121193       0.295750863491901     
           2           1  -15.1813335349675        6.90205601121193       0.295750863491901     
           3           1  -16.4320514709676        7.87011619321195       0.295750863491901     
ITEM: TIMESTEP
 0
ITEM: NUMBER OF ATOMS 
           3
ITEM: BOX BOUNDS pp pp pp
  0.000000000000000E+000  0.000000000000000E+000
  0.000000000000000E+000  0.000000000000000E+000
  0.000000000000000E+000  0.000000000000000E+000
ITEM: ATOMS id type x y z  
           1           1  -13.2982376880782        1.75248033627400        10.0784927290051     
           2           1  -12.2982376880783        1.75248033627400        10.0784927290051     
           3           1  -13.5489556240783        2.72054051827400        10.0784927290051     
ITEM: TIMESTEP
 0
ITEM: NUMBER OF ATOMS 
           3
ITEM: BOX BOUNDS pp pp pp
  0.000000000000000E+000  0.000000000000000E+000
  0.000000000000000E+000  0.000000000000000E+000
  0.000000000000000E+000  0.000000000000000E+000
ITEM: ATOMS id type x y z  
           1           1  -14.0577203067072        9.94950356880989        6.63153234587961     
           2           1  -13.0577203067074        9.94950356880989        6.63153234587961     
           3           1  -14.3084382427073        10.9175637508098        6.63153234587961     
ITEM: TIMESTEP
 0
ITEM: NUMBER OF ATOMS 
           3
ITEM: BOX BOUNDS pp pp pp
  0.000000000000000E+000  0.000000000000000E+000
  0.000000000000000E+000  0.000000000000000E+000
  0.000000000000000E+000  0.000000000000000E+000
ITEM: ATOMS id type x y z  
           1           1  -19.8034090669755        11.3073118152535        8.45207365013573     
           2           1  -18.8034090669756        11.3073118152535        8.45207365013573     
           3           1  -20.0541270029756        12.2753719972534        8.45207365013573     
ITEM: TIMESTEP
 0
ITEM: NUMBER OF ATOMS 
           3
ITEM: BOX BOUNDS pp pp pp
  0.000000000000000E+000  0.000000000000000E+000
  0.000000000000000E+000  0.000000000000000E+000
  0.000000000000000E+000  0.000000000000000E+000
ITEM: ATOMS id type x y z  
           1           1  -32.6275228016958        16.5343108167409        1.11664897323360     
           2           1  -31.6275228016959        16.5343108167409        1.11664897323360     
           3           1  -32.8782407376959        17.5023709987409        1.11664897323360     
ITEM: TIMESTEP
 0
ITEM: NUMBER OF ATOMS 
           3
ITEM: BOX BOUNDS pp pp pp
  0.000000000000000E+000  0.000000000000000E+000
  0.000000000000000E+000  0.000000000000000E+000
  0.000000000000000E+000  0.000000000000000E+000
ITEM: ATOMS id type x y z  
           1           1  -25.7130275626996        20.7129801864817       -15.4522017383145     
           2           1  -24.7130275626996        20.7129801864817       -15.4522017383145     
           3           1  -25.9637454986997        21.6810403684817       -15.4522017383145     
ITEM: TIMESTEP
 0
ITEM: NUMBER OF ATOMS 
           3
ITEM: BOX BOUNDS pp pp pp
  0.000000000000000E+000  0.000000000000000E+000
  0.000000000000000E+000  0.000000000000000E+000
  0.000000000000000E+000  0.000000000000000E+000
ITEM: ATOMS id type x y z  
           1           1  -20.1892664166950        26.4524064807127        1.62599615602886     
           2           1  -19.1892664166950        26.4524064807127        1.62599615602886     
           3           1  -20.4399843526951        27.4204666627128        1.62599615602886     
ITEM: TIMESTEP
 0
ITEM: NUMBER OF ATOMS 
           3
ITEM: BOX BOUNDS pp pp pp
  0.000000000000000E+000  0.000000000000000E+000
  0.000000000000000E+000  0.000000000000000E+000
  0.000000000000000E+000  0.000000000000000E+000
ITEM: ATOMS id type x y z  
           1           1  -10.6608064272182        26.5850057129071       0.174536776335916     
           2           1  -9.66080642721817        26.5850057129071       0.174536776335916     
           3           1  -10.9115243632183        27.5530658949071       0.174536776335916     
