ITEM: TIMESTEP
 0
ITEM: NUMBER OF ATOMS 
          51
ITEM: BOX BOUNDS pp pp pp
  -3.84960420785000        3.84960420785000     
  -3.84960420785000        3.84960420785000     
  -3.84960420785000        3.84960420785000     
ITEM: ATOMS id type x y z  
           1           1 -0.244377951369810       0.708703355250528      -0.821503110881048     
           2           2 -0.153229839535610       0.639226660137535       0.128810969066077     
           3           2  0.603858200966864       0.428215721140573       -1.16509292007178     
           4           1  -2.05633530094203      -0.733652183473336       -2.13090403860607     
           5           2  -2.27660580467407       3.015597408763154E-002  -2.66411116874392     
           6           2  -1.36156052793785      -0.427216578325951       -1.54813729736711     
           7           1  -2.01619389297432        1.83397521908302       0.978920889165558     
           8           2  -1.89490869841280        1.92650852892991       3.395563681549474E-002
           9           2  -2.21704115919267        2.71912008022090        1.28291232071228     
          10           1   1.78263312555703      -0.681127023353847        3.07325797693579     
          11           2   1.54043374681916      -0.652545543586660        2.14764769179774     
          12           2   2.60656863266468       -1.16800910608467        3.09080669891071     
          13           1   1.77721386162686        3.09350121062125       -2.89367521626438     
          14           2   1.22897160120021        2.59050583284706       -3.49588607121474     
          15           2   1.88405485786654        2.52271642298688       -2.13274054907691     
          16           1  -1.52381024131615      -0.712453396226480        3.04802019971924     
          17           2  -1.29923059864989       -1.48511086644739        3.56647584662813     
          18           2  -1.54696126075879       -1.02804754611496        2.14463976886246     
          19           1   1.86298648880373        3.15782418669678       0.939323587089426     
          20           2   2.25916057830704        3.22183105308374        1.80833512433243     
          21           2   2.42659392107171        3.69106911563715       0.378762842788088     
          22           1   2.03329807223044      -0.781688586175434      -0.802219078854141     
          23           2   2.63126122748318      -0.855550724318516      -5.843396908847109E-002
          24           2   2.26381049835534       5.126092841955809E-002  -1.21366891484630     
          25           1  -1.92466149622840        3.10958590787805       -2.84861290379261     
          26           2  -1.76165720927184        2.79576780037897       -3.73809569611600     
          27           2  -1.06512981857347        3.38523114892869       -2.53009000635222     
          28           1  -2.03722802337276       -1.89172563493969       0.603903937111010     
          29           2  -2.54387714586538       -2.26656877476368      -0.116534212353791     
          30           2  -1.12647594192198       -1.95851128800028       0.317020402068722     
          31           1 -0.132297493807561       -3.08893903931735      -0.815322595216241     
          32           2 -0.231297048037529       -3.72306258375660      -0.105168908575069     
          33           2  0.813184434470218       -3.02585448797976      -0.950659591941752     
          34           1  -3.75155259511424        3.16731978022097      -0.833496476726170     
          35           2  -3.61871085032709        2.25246940789489      -0.585235108211589     
          36           2  -3.09965483896238        3.32793498744060       -1.51574563263185     
          37           1  -3.83665355527224       -1.93869012735797        3.03946633449196     
          38           2  -3.13389497712259       -1.92971580710320        3.68929837618661     
          39           2  -3.43872808932827       -2.32843141314807        2.26101344978797     
          40           1  1.824847546267137E-002   2.04142069417253        3.03706898832895     
          41           2  0.346488991105255        2.22793113219408        2.15746461112308     
          42           2 -0.292633835025625        1.13730998038841        2.99050885252373     
          43           1   3.77781462495360        3.16464951246533        3.06396045621276     
          44           2  -3.25701371711586        3.14167234489606        3.75265705670762     
          45           2   2.97772412735144        3.44005919778677        3.51143843430541     
          46           1  -3.79571085487152       0.876513371159163       -2.90013703404221     
          47           2  -3.62173540383263       0.122384755586605       -2.33688361540147     
          48           2  -3.60888386755996       0.563240206450412       -3.78511581406208     
          49           1  2.730756216418244E-002  -3.00813536301551        3.03761655860770     
          50           2  0.425624790622544       -3.10014673570961       -3.79608094854857     
          51           2  0.690685024145296       -2.55778761503291        2.51478858611340     
ITEM: TIMESTEP
 0
ITEM: NUMBER OF ATOMS 
          51
ITEM: BOX BOUNDS pp pp pp
  -3.84960420785000        3.84960420785000     
  -3.84960420785000        3.84960420785000     
  -3.84960420785000        3.84960420785000     
ITEM: ATOMS id type x y z  
           1           1 -0.379026351559461       0.709676575793274       -1.00169319423152     
           2           2 -0.630315717847452       6.879454859014793E-002 -0.336594914577212     
           3           2  0.352999842574090        1.18673413345542      -0.610815236578462     
           4           1  -2.00147258654264      -0.770228131062622       -2.29950810283663     
           5           2  -2.46547015245225      -0.179129579619677       -2.89241669723622     
           6           2  -1.46507202810049      -0.192854876829028       -1.75623431716500     
           7           1  -2.14299160852249        1.74643309623564       0.747398900862156     
           8           2  -2.51722337539250        1.25763310228084       1.442073571996825E-002
           9           2  -1.45124580822601        1.17832393277658        1.08647347402570     
          10           1   1.66830519299077      -0.679771220411322        2.79393990779701     
          11           2   2.34690382218123      -0.163120232664582        3.22845975466386     
          12           2   1.35846953151394      -0.119192297539304        2.08261369985239     
          13           1   1.37839767703111        3.12609433627304       -2.79024396067843     
          14           2   2.09610527696187        3.68705973915503       -3.08426004488308     
          15           2  0.595343008511531        3.66818395563135       -2.88614010603198     
          16           1  -1.11985972830061      -0.724017506553885        2.91688690727888     
          17           2  -1.48952289127094       -1.45015302359130        3.41918980079989     
          18           2 -0.924918433833939      -5.380171667924975E-002   3.57189875962541     
          19           1   1.92319882651136        3.13035303079455        1.06927397179648     
          20           2   2.35314566387398        3.48731743958123       0.292129218290846     
          21           2   2.25238216922895        2.23396119833793        1.13524252174507     
          22           1   1.95925218662260      -0.718836101837914      -0.908208053096049     
          23           2   1.46565314304275      -0.178023257457922      -0.291674768081613     
          24           2   2.59888025187818      -0.120177740781640       -1.29384511676452     
          25           1  -1.40184140054096        3.08792717268539       -3.31024188459631     
          26           2  -1.37177378438289        2.30716096774953        3.83603623559750     
          27           2  -1.08082710063133        3.79281068631603        3.82654241047475     
          28           1  -2.11102741253735       -1.83773160350917       0.612509728252426     
          29           2  -1.71856809814089       -2.69676637307731       0.768287747293499     
          30           2  -2.81086553525897       -2.00454249521344      -1.886382868063907E-002
          31           1 -2.787032062100977E-002  -3.05649229714766       -1.03175469162430     
          32           2 -0.529362459425113       -3.59752239726939      -0.421817067370848     
          33           2  0.695814369967019       -2.71243514244973      -0.508173768643255     
          34           1   3.79645090239613        3.10618790351790      -0.807603713161064     
          35           2  -3.54994286921591        3.56730707480776      -4.660254575984100E-002
          36           2   3.03856781366152        3.62685799538235       -1.07358814738227     
          37           1  -3.66802265551968       -1.97287065528635        2.92478121877177     
          38           2   3.67847179047338       -2.81115293032778        2.62627238653236     
          39           2  -3.22223825287320       -2.17897536181904        3.74638267708487     
          40           1  0.250654254058862        2.10847283937212        2.71142991369574     
          41           2  0.458030732461640        1.60867927022363        3.50100779107269     
          42           2  0.452199813707499        3.01544749662254        2.94166500765707     
          43           1  -3.75148661636442        3.06041324881697        3.14796128677808     
          44           2   3.69063289743234        3.68529159134889        3.82594668009622     
          45           2   3.45666018094158        2.26545026464281        3.35562491077895     
          46           1  -3.78212816122744       0.855830342276206       -2.98837196096660     
          47           2  -2.99966346304369       0.754294875595910       -2.44645740579921     
          48           2  -3.48043099518449       0.683203845809488        3.81897842078445     
          49           1  0.117424930363226       -2.93399501986570        2.85102140703898     
          50           2 -9.579451653778757E-002  -2.46143427068502        3.65566769317781     
          51           2 -0.173496368978862       -2.35364275481730        2.14760980204352     
ITEM: TIMESTEP
 0
ITEM: NUMBER OF ATOMS 
          51
ITEM: BOX BOUNDS pp pp pp
  -3.84960420785000        3.84960420785000     
  -3.84960420785000        3.84960420785000     
  -3.84960420785000        3.84960420785000     
ITEM: ATOMS id type x y z  
           1           1 -0.221146039709225       0.633962274503755      -0.875911765894820     
           2           2 -0.564227258775210       3.784261560491215E-002 -0.210202768359823     
           3           2  0.512986604677410        1.07463831264944      -0.448026582873308     
           4           1  -2.02137987545425      -0.902354081611020       -2.13286877411795     
           5           2  -2.52672341786866      -0.342967702984293       -2.72273877975296     
           6           2  -1.43900315647873      -0.299500918063909       -1.67065966516850     
           7           1  -2.15762396507379        1.53378825302692       0.831609399435035     
           8           2  -2.46273288858909        1.02209177596393       8.240508808016253E-002
           9           2  -1.38822960316368        1.06044899862837        1.14817551592002     
          10           1   1.77556628078176      -0.848460150774884        2.99470177616754     
          11           2   2.42791725718086      -0.275279263890482        3.39736008603036     
          12           2   1.39135700878914      -0.320350393549988        2.29490526314482     
          13           1   1.45027760952591        2.99020077383013       -2.70066187843044     
          14           2   2.17736766814975        3.55376880191449       -2.96516700951758     
          15           2  0.684997681860677        3.56506730978412       -2.71100296894216     
          16           1  -1.12873574871414      -0.810585544924011        3.13935927650713     
          17           2  -1.45545854049671       -1.55222743261724        3.64872296558265     
          18           2 -0.980311310029852      -0.121482524355866        3.78692321392579     
          19           1   1.93865259103898        3.02704780738672        1.13987840757658     
          20           2   2.44932322767128        3.43646575442747       0.441434218308500     
          21           2   2.29622446581808        2.14203118946509        1.21143104812521     
          22           1   1.96615983919704      -0.914982336796320      -0.745593008502541     
          23           2   1.44651633361338      -0.395445761465695      -0.132172912647792     
          24           2   2.59403337303575      -0.293695932932762       -1.11438816828533     
          25           1  -1.42661900875344        3.00788525998391       -3.23295351796183     
          26           2  -1.29222927498741        2.19193929987543       -3.71503590681344     
          27           2  -1.06184273474219        3.68568027481318       -3.80195617858045     
          28           1  -2.07872126951989       -1.95672345111350       0.806029545170350     
          29           2  -1.68780990528863       -2.81941174001058       0.944554133293072     
          30           2  -2.72375895798022       -2.09412784415676       0.112287335673053     
          31           1 -0.105439858047316       -3.16101733629810      -0.794049235146996     
          32           2 -0.593740552740948       -3.73737048719458      -0.206162071642477     
          33           2  0.607471401425818       -2.81729795677839      -0.255675420535778     
          34           1   3.78937691609359        3.01019752157666      -0.594421908381357     
          35           2  -3.42553436079664        3.52196691912797       5.348256379847456E-002
          36           2   3.11524177030067        3.60810471019669      -0.917347037479883     
          37           1  -3.61370761835024       -2.07616216771768        3.09465688924964     
          38           2   3.69147288274549       -2.91418698308793        2.85240030763365     
          39           2  -3.36910222484918       -2.18279520250349       -3.68529669923290     
          40           1  0.304855059924345        2.01235651446867        2.91055844766099     
          41           2  0.459203654883394        1.56121999140417        3.74054892278191     
          42           2  0.497158197507983        2.93122247039794        3.09747205955072     
          43           1  -3.82269966837306        2.92862575931477        3.22276994131543     
          44           2   3.73452573503152        3.50747904379771       -3.72743811439611     
          45           2   3.32881610638295        2.16451778997818        3.40278000284564     
          46           1  -3.73835695273910       0.886108609938537       -2.94199266365711     
          47           2  -3.01044132055278       0.698802765072831       -2.34929780717699     
          48           2  -3.44765519506853       0.554265382310384       -3.79146567698042     
          49           1  0.202815990294284       -3.01006961312077        3.00628718275466     
          50           2 -0.116199817914235       -2.53266615682904        3.77215054787520     
          51           2 -7.528776006085740E-002  -2.47945157341354        2.25973869807623     
ITEM: TIMESTEP
 0
ITEM: NUMBER OF ATOMS 
          51
ITEM: BOX BOUNDS pp pp pp
  -3.84960420785000        3.84960420785000     
  -3.84960420785000        3.84960420785000     
  -3.84960420785000        3.84960420785000     
ITEM: ATOMS id type x y z  
           1           1 -0.181696530895660       0.672380955420048      -0.931121288179529     
           2           2 -0.549974445673517       5.079294787106607E-002 -0.303242664273059     
           3           2  0.441151946938120        1.18917936419002      -0.420033215189923     
           4           1  -1.96519877812282      -0.774221768472553       -2.19037803998527     
           5           2  -2.50834666712863      -0.176178630662537       -2.70376543366357     
           6           2  -1.38567897061098      -0.201120928918060       -1.68843774432982     
           7           1  -2.12001212008324        1.63183205203102       0.823697921612867     
           8           2  -2.44915913477488        1.12969146922147       7.821222905039707E-002
           9           2  -1.35976615664564        1.13707512966604        1.12943228809592     
          10           1   1.79253640752902      -0.756628927860025        2.94784864743803     
          11           2   2.44807129450020      -0.197258379897564        3.36451451121367     
          12           2   1.45049032150387      -0.228915422685530        2.22621524224442     
          13           1   1.50348199133318        3.09686822784798       -2.66858452922418     
          14           2   2.20827263851564        3.64151203508957       -3.01910572241718     
          15           2  0.723327873379168        3.64864997571600       -2.72451569190772     
          16           1 -0.962692625487404      -0.759596193218352        3.08052897079151     
          17           2  -1.34002354545346       -1.49275976966748        3.56666103824428     
          18           2 -0.870156308624685      -6.297058718449897E-002   3.73043791447478     
          19           1   2.06569182451824        3.07853156961766        1.17747293050131     
          20           2   2.51072640100062        3.39012602372352       0.389383492743472     
          21           2   2.44267590709367        2.21382651668186        1.33995373832802     
          22           1   1.96913730083953      -0.795413763325965      -0.744162217010804     
          23           2   1.48966045653098      -0.246916066766809      -0.123288580397648     
          24           2   2.65192421176812      -0.222429733374975       -1.09305070304290     
          25           1  -1.25432736082225        3.12792776582781       -3.27608871864154     
          26           2  -1.28604072253652        2.33954619544863       -3.81801177791762     
          27           2 -0.999209741561952        3.82470039572031        3.81842577235304     
          28           1  -2.01117532000901       -1.85244949895948       0.739587458716315     
          29           2  -1.66602998846175       -2.72715567629470       0.918460719553886     
          30           2  -2.70174517993917       -1.99470441542576       9.220144767094091E-002
          31           1  4.361080704198946E-003  -3.15455887629284      -0.857331700247081     
          32           2 -0.545886216038497       -3.68621838275389      -0.282181353279489     
          33           2  0.688700570925757       -2.81003988144014      -0.283556514038230     
          34           1  -3.84117845208144        3.08810596256573      -0.696721983054767     
          35           2  -3.37293641289165        3.58125687537691      -2.308750507069803E-002
          36           2   3.13755937939911        3.66201306962910      -0.957076759728216     
          37           1  -3.56971628654675       -2.05795172506663        3.03374632135034     
          38           2  -3.84829359893146       -2.90433904542609        2.68409646083375     
          39           2  -3.18362826673179       -2.26518112214393       -3.81444866440723     
          40           1  0.414140456766632        1.99573757927983        2.84655828122726     
          41           2  0.445510012721077        1.61571614655090        3.72452838414983     
          42           2  0.573041962081816        2.92967231506944        2.98348183980699     
          43           1  -3.69614410306393        2.98810873030491        3.25307536114469     
          44           2  -3.84850533969086        3.63680146712645       -3.75895358253327     
          45           2   3.46139334455800        2.24013029540121        3.50477491072786     
          46           1  -3.74497085952848       0.812031775344936       -3.00350761113444     
          47           2  -2.89284938237724       0.889108316424719       -2.57434559628130     
          48           2  -3.57426221698258       0.282924819694331       -3.78269708028960     
          49           1  0.342574965685837       -2.93067204494447        2.91465388658040     
          50           2  4.289105071651270E-002  -2.40436823543124        3.65588643524546     
          51           2 -1.060846903419910E-002  -2.48435501268719        2.14504722850344     
ITEM: TIMESTEP
 0
ITEM: NUMBER OF ATOMS 
          51
ITEM: BOX BOUNDS pp pp pp
  -3.84960420785000        3.84960420785000     
  -3.84960420785000        3.84960420785000     
  -3.84960420785000        3.84960420785000     
ITEM: ATOMS id type x y z  
           1           1 -0.342878808148539       0.648104638175348      -0.811560154446512     
           2           2 -0.713236070194975       9.915295202198907E-002 -0.120387683409527     
           3           2  0.354282249095416        1.14102259312473      -0.378859114523705     
           4           1  -2.10415823260341      -0.745432408309101       -2.00630504651231     
           5           2  -2.52642578294343      -0.163119000192882       -2.63783735024571     
           6           2  -1.49136148943185      -0.182484814717598       -1.53322788744928     
           7           1  -2.25136779394319        1.62606524897576       0.901445061499898     
           8           2  -2.56421785500037        1.07476171936966       0.184213510645877     
           9           2  -1.52428210763664        1.13399128010063        1.28281293367012     
          10           1   1.63597388780591      -0.753422199000144        3.07488355336212     
          11           2   2.30873888127802      -0.187930324059492        3.45414341537580     
          12           2   1.20206079628235      -0.205046129178493        2.42125142819427     
          13           1   1.33964446912674        3.13687662573428       -2.56340830285440     
          14           2   2.05854607221829        3.73690395008248       -2.76185107825282     
          15           2  0.548655602020232        3.66314076649854       -2.68008951924878     
          16           1  -1.20986718509928      -0.729497853824600        3.25884662507436     
          17           2  -1.54547587761077       -1.47285556382173        3.75986355143368     
          18           2  -1.15092738423728      -1.762844471637391E-002  -3.80318058857218     
          19           1   1.96082608532807        3.06945058496041        1.38647030778082     
          20           2   2.33952780098019        3.37899669548787       0.563671391872854     
          21           2   2.30582157424834        2.18270581207829        1.49084300723256     
          22           1   1.75251475750836      -0.878454945612355      -0.601487373819128     
          23           2   1.15073001050117      -0.501911121218359       4.061986533977046E-002
          24           2   2.35185052920376      -0.163793357794300      -0.816632180086226     
          25           1  -1.37322570251060        3.16570799622189       -3.09115471586440     
          26           2  -1.35428046510948        2.35028740885213       -3.59211597551757     
          27           2  -1.11014365283420        3.83900998223010       -3.71859723177758     
          28           1  -2.13992537805929       -1.77379435996950       0.826471919210763     
          29           2  -1.74576112225616       -2.61436787433753        1.05950098690426     
          30           2  -2.83688679129391       -1.99824677880284       0.209951246287392     
          31           1 -0.163848667836043       -3.06355425562683      -0.684135874830431     
          32           2 -0.644754159040346       -3.64113473011772      -9.137745522222070E-002
          33           2  0.556731220655374       -2.72225327153810      -0.154503830329944     
          34           1   3.68727186013933        3.11350654730608      -0.514185444267170     
          35           2  -3.54082489532769        3.62776080892451       0.141427397278653     
          36           2   2.97665411776266        3.68606170111564      -0.803036374793022     
          37           1  -3.73977845078973       -2.03342947895158        3.20430932433591     
          38           2   3.65199479694607       -2.89332502402339        2.91743808307169     
          39           2  -3.31418107148028       -2.19908961367483       -3.65367651053994     
          40           1  0.202462138277231        2.07424062442637        3.01096588724475     
          41           2  0.290688030249792        1.68966655721606       -3.81614688071073     
          42           2  0.348665858795813        3.01056944955687        3.14566794118684     
          43           1  -3.79850800737586        3.08334838096399        3.34151234778177     
          44           2   3.65574625498874        3.66378744721050       -3.63705760576217     
          45           2   3.45740821833141        2.25781174118992        3.53699413895935     
          46           1   3.72696156477622       0.800704703550571       -2.84291942211851     
          47           2  -3.09972455394372       0.934507900066190       -2.47273921482092     
          48           2  -3.82625577707459       0.240164815124406       -3.60496501120066     
          49           1  0.104488559104052       -2.92931106989688        3.10592542227488     
          50           2 -0.228991589415949       -2.47319532477030       -3.82063737116956     
          51           2 -0.178474487290168       -2.38951702993684        2.36782912178360     
ITEM: TIMESTEP
 0
ITEM: NUMBER OF ATOMS 
          51
ITEM: BOX BOUNDS pp pp pp
  -3.84960420785000        3.84960420785000     
  -3.84960420785000        3.84960420785000     
  -3.84960420785000        3.84960420785000     
ITEM: ATOMS id type x y z  
           1           1 -0.393184067992860       0.521326972092126      -0.814441685349154     
           2           2 -0.735300827137601      -3.182486905345162E-002 -0.112151856467891     
           3           2  0.313406553668888        1.02016776572521      -0.404418032389419     
           4           1  -2.06655482291280      -0.893254571950784       -2.02437174469943     
           5           2  -2.62266594550496      -0.278775172382727       -2.50331571515598     
           6           2  -1.50530679339526      -0.337616136591733       -1.48354051546644     
           7           1  -2.20596514694104        1.51775993280450       0.936275448402334     
           8           2  -2.53294193853471        1.01398922979449       0.190934522014972     
           9           2  -1.50143839314018       0.980504542305143        1.29853300671995     
          10           1   1.65521083542868      -0.876038196694873        3.07712431394514     
          11           2   2.33080235893324      -0.303071720257950        3.43977752329020     
          12           2   1.10781042469501      -0.296302010389772        2.54751069571291     
          13           1   1.31395612500658        2.98158226262322       -2.59769429954557     
          14           2   2.05491029476163        3.51723741677015       -2.88105328415403     
          15           2  0.551241288603617        3.54926837221142       -2.70828543531809     
          16           1  -1.16328631554541      -0.823665003635971        3.25644928255721     
          17           2  -1.52355944481645       -1.56587184264601        3.74179876535488     
          18           2  -1.17555013486189      -9.919219450665065E-002  -3.81728284456894     
          19           1   1.85040915473547        2.89507681749123        1.24332720443990     
          20           2   2.31952707835377        3.22689277980020       0.477782704820917     
          21           2   2.27301145473393        2.05903699960096        1.43999077233675     
          22           1   1.80126700215875      -0.984562970611018      -0.629033500298517     
          23           2   1.20095346364540      -0.619813575664720       2.120751222216206E-002
          24           2   2.35950081670551      -0.248546391355389      -0.879805195984953     
          25           1  -1.52287768632605        3.01438322766536       -3.13986415693599     
          26           2  -1.45796418988129        2.23392955749984       -3.69023689127552     
          27           2  -1.17597285908757        3.72132246523713       -3.68403857311160     
          28           1  -2.14499464136314       -1.95460212752541       0.887249937640821     
          29           2  -1.76469841743193       -2.80025353452139        1.12490582313356     
          30           2  -2.81194432876219       -2.16643334254058       0.234151560040982     
          31           1 -0.205322025025120       -3.14761689424938      -0.676433786620830     
          32           2 -0.651797902592552       -3.77079859587178      -0.103253450676366     
          33           2  0.527708747017538       -2.82309280987984      -0.153383267165328     
          34           1   3.66424733779305        2.97939583954346      -0.613270878232186     
          35           2  -3.61279293663313        3.42160242302045       0.123247443347807     
          36           2   2.92038511418877        3.53949079077372      -0.835069160238443     
          37           1  -3.71246650219234       -2.15892694024538        3.14680567862766     
          38           2   3.69264283030169       -3.03577535883885        2.90007825804468     