# total energy =          -103.7437726946 ev
 
 CRYSTAL
 PRIMVEC
   7.69920841570000       0.0000000E+00  0.0000000E+00
  0.0000000E+00   7.69920841570000       0.0000000E+00
  0.0000000E+00  0.0000000E+00   7.69920841570000     
 PRIMCOORD
          51           1
 O       3.74130777952130        4.54950671695599        3.01970080294598       0.0000000E+00  0.0000000E+00  0.0000000E+00
 H       3.29376763909749        4.60728386168850        3.86385805385159       0.0000000E+00  0.0000000E+00  0.0000000E+00
 H       4.51094825126746        4.00733500717668        3.19271878283414       0.0000000E+00  0.0000000E+00  0.0000000E+00
 O       1.96253956095267        3.02743778568762        1.73665240877586       0.0000000E+00  0.0000000E+00  0.0000000E+00
 H       1.63968882915918        3.81032011577743        1.29045233906000       0.0000000E+00  0.0000000E+00  0.0000000E+00
 H       2.55541840367468        3.36202077204126        2.40954225347155       0.0000000E+00  0.0000000E+00  0.0000000E+00
 O       1.73874524791141        5.74382737692456        4.75502164743360       0.0000000E+00  0.0000000E+00  0.0000000E+00
 H       1.65971211142205        5.98409587538997        3.83184417154833       0.0000000E+00  0.0000000E+00  0.0000000E+00
 H      0.846278965866089        5.80367984047925        5.09583458442197       0.0000000E+00  0.0000000E+00  0.0000000E+00
 O       5.68332454894336        3.13159482661112        6.90405403919550       0.0000000E+00  0.0000000E+00  0.0000000E+00
 H       5.75249279303750        2.72092859748478       6.670456918448586E-002  0.0000000E+00  0.0000000E+00  0.0000000E+00
 H       4.95937483458381        3.75171703558075        6.99110056136235       0.0000000E+00  0.0000000E+00  0.0000000E+00
 O       5.74805776263848        7.00217158259027        1.03424845665878       0.0000000E+00  0.0000000E+00  0.0000000E+00
 H       5.52078104389948        6.43590184754883       0.296742036147547       0.0000000E+00  0.0000000E+00  0.0000000E+00
 H       5.27351712744638       0.117208139899323       0.866772639058224       0.0000000E+00  0.0000000E+00  0.0000000E+00
 O       2.83524971640134        3.19350949853353        6.84949019587813       0.0000000E+00  0.0000000E+00  0.0000000E+00
 H       3.09095778575972        3.58962107593803        7.68252131265056       0.0000000E+00  0.0000000E+00  0.0000000E+00
 H       2.13108163179233        2.58687458298094        7.07834217391331       0.0000000E+00  0.0000000E+00  0.0000000E+00
 O       5.64800346214891        7.04573292526817        4.89801578482055       0.0000000E+00  0.0000000E+00  0.0000000E+00
 H       6.51240032142354        7.29933718315683        4.57438823646164       0.0000000E+00  0.0000000E+00  0.0000000E+00
 H       5.04279479513051        7.32722666734368        4.21192863107247       0.0000000E+00  0.0000000E+00  0.0000000E+00
 O       5.72944012350610        2.94928013007468        3.09306159119461       0.0000000E+00  0.0000000E+00  0.0000000E+00
 H       5.47716722836732        3.44655005040221        2.31504304853912       0.0000000E+00  0.0000000E+00  0.0000000E+00
 H       5.48466313433963        3.51223391840651        3.82749953804746       0.0000000E+00  0.0000000E+00  0.0000000E+00
 O       2.13398913583642        6.82321245218261       0.914016887988022       0.0000000E+00  0.0000000E+00  0.0000000E+00
 H       1.61392989554525        6.08690059441860        1.23590984333776       0.0000000E+00  0.0000000E+00  0.0000000E+00
 H       1.48644584322163        7.46898819888601       0.631363019875035       0.0000000E+00  0.0000000E+00  0.0000000E+00
 O       1.88935854429166        1.93284075978381        4.53417654470601       0.0000000E+00  0.0000000E+00  0.0000000E+00
 H       1.47805008664076        1.16470813060007        4.93044596902236       0.0000000E+00  0.0000000E+00  0.0000000E+00
 H       2.81719185963827        1.70493104339229        4.47574418973661       0.0000000E+00  0.0000000E+00  0.0000000E+00
 O       3.68521772864073       0.678776277557375        3.09086081552973       0.0000000E+00  0.0000000E+00  0.0000000E+00
 H       3.26049176016969       0.524690282424057        3.93471933317952       0.0000000E+00  0.0000000E+00  0.0000000E+00
 H       4.44126591844380        1.22754360871827        3.29937314357308       0.0000000E+00  0.0000000E+00  0.0000000E+00
 O       7.59068357667914        6.90849941556028        3.12630322941558       0.0000000E+00  0.0000000E+00  0.0000000E+00
 H      0.478695533149911        7.59762647243457        3.43696055508389       0.0000000E+00  0.0000000E+00  0.0000000E+00
 H       7.05123262346141        7.33498973336860        2.46047253179921       0.0000000E+00  0.0000000E+00  0.0000000E+00
 O      9.974807882205594E-002   1.69481835970723        6.90778418010981       0.0000000E+00  0.0000000E+00  0.0000000E+00
 H       6.94461319063807        1.90718157598572        7.28359160882886       0.0000000E+00  0.0000000E+00  0.0000000E+00
 H      0.156203202254529        2.23502220421316        6.11960623990897       0.0000000E+00  0.0000000E+00  0.0000000E+00
 O       3.88094303599630        5.78881066282932        6.77984559109378       0.0000000E+00  0.0000000E+00  0.0000000E+00
 H       4.17322163656987        5.65127615783788        7.68089460173834       0.0000000E+00  0.0000000E+00  0.0000000E+00
 H       3.18658344966509        6.44391120368007        6.85012991542687       0.0000000E+00  0.0000000E+00  0.0000000E+00
 O      0.153100603359452        6.87110312773675        6.79884440873697       0.0000000E+00  0.0000000E+00  0.0000000E+00
 H      0.316642484909474       0.114759340793879        6.77665917000131       0.0000000E+00  0.0000000E+00  0.0000000E+00
 H      0.845300288129995        6.52059353199228        7.35941060437726       0.0000000E+00  0.0000000E+00  0.0000000E+00
 O      6.418472488463234E-002   4.66116793181337       0.747950980314838       0.0000000E+00  0.0000000E+00  0.0000000E+00
 H      0.729092169000289        4.58503897496645       6.360142585525175E-002  0.0000000E+00  0.0000000E+00  0.0000000E+00
 H       6.97436622139219        4.28384352979637       0.358984842415663       0.0000000E+00  0.0000000E+00  0.0000000E+00
 O       3.96965648868344       0.632840793961329        6.88453551184660       0.0000000E+00  0.0000000E+00  0.0000000E+00
 H       4.73960320526401       0.386155185903947        6.37212932101343       0.0000000E+00  0.0000000E+00  0.0000000E+00
 H       4.06186152406892       0.148105223997153       5.547492540807664E-003  0.0000000E+00  0.0000000E+00  0.0000000E+00
# total energy =          -111.1605419487 ev
 
 CRYSTAL
 PRIMVEC
   7.69920841570000       0.0000000E+00  0.0000000E+00
  0.0000000E+00   7.69920841570000       0.0000000E+00
  0.0000000E+00  0.0000000E+00   7.69920841570000     
 PRIMCOORD
          51           1
 O       3.61651438989174        4.44227729388734        2.90306972248934       0.0000000E+00  0.0000000E+00  0.0000000E+00
 H       3.22210494260171        4.68783046145286        3.73995482200267       0.0000000E+00  0.0000000E+00  0.0000000E+00
 H       4.45998973751214        4.05632656670604        3.13933909025443       0.0000000E+00  0.0000000E+00  0.0000000E+00
 O       1.87221064526593        2.94562164009786        1.69244650809502       0.0000000E+00  0.0000000E+00  0.0000000E+00
 H       1.47490807664558        3.59180707343048        1.10864269283060       0.0000000E+00  0.0000000E+00  0.0000000E+00
 H       2.49330890973196        3.44823300086181        2.21956187109213       0.0000000E+00  0.0000000E+00  0.0000000E+00
 O       1.63171993392506        5.69911269786769        4.67227747477418       0.0000000E+00  0.0000000E+00  0.0000000E+00
 H       1.63063920048677        5.96273339633814        3.75209553659387       0.0000000E+00  0.0000000E+00  0.0000000E+00
 H      0.726199772414603        5.82057558408253        4.95778026700296       0.0000000E+00  0.0000000E+00  0.0000000E+00
 O       5.66556566045185        3.08431452748547        6.82461214927791       0.0000000E+00  0.0000000E+00  0.0000000E+00
 H       5.80617350963502        2.69274396856548        7.68666421854937       0.0000000E+00  0.0000000E+00  0.0000000E+00
 H       4.86865727525125        3.60504579975584        6.92465118004418       0.0000000E+00  0.0000000E+00  0.0000000E+00
 O       5.64363358780321        6.99619540901847       0.988071204581380       0.0000000E+00  0.0000000E+00  0.0000000E+00
 H       5.61322116897498        6.42424708576254       0.221140933757687       0.0000000E+00  0.0000000E+00  0.0000000E+00
 H       5.17287374900023       8.552289938326174E-002  0.718204313287236       0.0000000E+00  0.0000000E+00  0.0000000E+00
 O       2.84354546258092        3.03745743307997        6.87287409729014       0.0000000E+00  0.0000000E+00  0.0000000E+00
 H       2.93530471576932        3.57687946205163        7.65826314363239       0.0000000E+00  0.0000000E+00  0.0000000E+00
 H       2.55365258938782        2.18561900000053        7.19931742468504       0.0000000E+00  0.0000000E+00  0.0000000E+00
 O       5.54914307869317        6.94560763042559        4.87213710338441       0.0000000E+00  0.0000000E+00  0.0000000E+00
 H       6.37993531806060        7.24890633691626        4.50604150159737       0.0000000E+00  0.0000000E+00  0.0000000E+00
 H       4.89219859829151        7.21071029539236        4.22841638234360       0.0000000E+00  0.0000000E+00  0.0000000E+00
 O       5.70461170705131        3.01184585925668        2.98235345761203       0.0000000E+00  0.0000000E+00  0.0000000E+00
 H       5.28300650648452        3.46690596018690        2.25338075620517       0.0000000E+00  0.0000000E+00  0.0000000E+00
 H       5.42234796113435        3.49229026223587        3.76064144633271       0.0000000E+00  0.0000000E+00  0.0000000E+00
 O       2.03266670774711        6.66249183559068       0.881611422170925       0.0000000E+00  0.0000000E+00  0.0000000E+00
 H       1.41442273541348        5.97779104773953        1.13693682589934       0.0000000E+00  0.0000000E+00  0.0000000E+00
 H       1.48453249340332        7.35599198321046       0.514408115653887       0.0000000E+00  0.0000000E+00  0.0000000E+00
 O       1.86181300142386        1.85662260610119        4.51804046643982       0.0000000E+00  0.0000000E+00  0.0000000E+00
 H       1.46873408425157        1.06598078729396        4.88764338746152       0.0000000E+00  0.0000000E+00  0.0000000E+00
 H       2.77898702901028        1.62376125087120        4.37382107675385       0.0000000E+00  0.0000000E+00  0.0000000E+00
 O       3.57291225692651       0.502590690182429        3.01995808166949       0.0000000E+00  0.0000000E+00  0.0000000E+00
 H       3.03388176510789       0.329786575289949        3.79184972352474       0.0000000E+00  0.0000000E+00  0.0000000E+00
 H       4.38797905877591       0.860617156707210        3.37168951016398       0.0000000E+00  0.0000000E+00  0.0000000E+00
 O       7.43499368876040        6.87732036150397        2.96570652994352       0.0000000E+00  0.0000000E+00  0.0000000E+00
 H      0.373068673646072        7.47592892031102        3.35528258241710       0.0000000E+00  0.0000000E+00  0.0000000E+00
 H       6.90349715645372        7.43140744581708        2.39410283931214       0.0000000E+00  0.0000000E+00  0.0000000E+00
 O      5.576301709185127E-002   1.60895777050892        6.87497042274194       0.0000000E+00  0.0000000E+00  0.0000000E+00
 H       6.89827132114657        1.87041527075468        7.21251558160546       0.0000000E+00  0.0000000E+00  0.0000000E+00
 H      0.231461047878668        2.22465602832820        6.16343848579468       0.0000000E+00  0.0000000E+00  0.0000000E+00
 O       3.87649312233844        5.77138570301306        6.82466096260222       0.0000000E+00  0.0000000E+00  0.0000000E+00
 H       4.42217272343365        5.64577401798156        7.60099034986779       0.0000000E+00  0.0000000E+00  0.0000000E+00
 H       3.13483778338624        6.29135183554690        7.13420000573153       0.0000000E+00  0.0000000E+00  0.0000000E+00
 O      0.254250020576015        6.79223507974765        6.47254274526704       0.0000000E+00  0.0000000E+00  0.0000000E+00
 H      0.546517348635962        7.68239330917345        6.27650709663589       0.0000000E+00  0.0000000E+00  0.0000000E+00
 H      0.572044896897245        6.62524368054268        7.35987139304956       0.0000000E+00  0.0000000E+00  0.0000000E+00
 O      9.428434478424697E-002   4.48790320346493       0.679385222237194       0.0000000E+00  0.0000000E+00  0.0000000E+00
 H      0.674522313320858        4.55613211144846        7.62037166780976       0.0000000E+00  0.0000000E+00  0.0000000E+00
 H       6.99285333369204        4.09294117741558       0.334112364565398       0.0000000E+00  0.0000000E+00  0.0000000E+00
 O       3.92977615533367       0.599931409515185        6.83241746994208       0.0000000E+00  0.0000000E+00  0.0000000E+00
 H       4.64288966351893       0.569372253087824        6.19463451124675       0.0000000E+00  0.0000000E+00  0.0000000E+00
 H       4.10226388475665        7.56400295166108        7.42068067662733       0.0000000E+00  0.0000000E+00  0.0000000E+00
# total energy =          -113.6236795787 ev
 
 CRYSTAL
 PRIMVEC
   7.69920841570000       0.0000000E+00  0.0000000E+00
  0.0000000E+00   7.69920841570000       0.0000000E+00
  0.0000000E+00  0.0000000E+00   7.69920841570000     
 PRIMCOORD
          51           1
 O       3.69249237003254        4.48449453230689        3.02731598685581       0.0000000E+00  0.0000000E+00  0.0000000E+00
 H       3.25374013032966        4.75678389852527        3.83328547337538       0.0000000E+00  0.0000000E+00  0.0000000E+00
 H       4.50300276394491        4.07025151900888        3.32347045211514       0.0000000E+00  0.0000000E+00  0.0000000E+00
 O       1.93131652734306        2.95434418880119        1.80708397826314       0.0000000E+00  0.0000000E+00  0.0000000E+00
 H       1.60221092642429        3.61639199793318        1.19912506364116       0.0000000E+00  0.0000000E+00  0.0000000E+00
 H       2.58040480028227        3.41683331165977        2.33719723518999       0.0000000E+00  0.0000000E+00  0.0000000E+00
 O       1.63842525231760        5.64464416663490        4.80089423942030       0.0000000E+00  0.0000000E+00  0.0000000E+00
 H       1.67643234333768        5.90912183257469        3.88174307380536       0.0000000E+00  0.0000000E+00  0.0000000E+00
 H      0.733030143207088        5.81313415321016        5.06185910453173       0.0000000E+00  0.0000000E+00  0.0000000E+00
 O       5.69717701631734        3.09226536324804        6.88872214621064       0.0000000E+00  0.0000000E+00  0.0000000E+00
 H       5.86518024078985        2.67772794449687       3.577934190104815E-002  0.0000000E+00  0.0000000E+00  0.0000000E+00
 H       4.87986186122408        3.57407847080224        7.01554448905220       0.0000000E+00  0.0000000E+00  0.0000000E+00
 O       5.77526065090195        7.02596531490540        1.08193295432252       0.0000000E+00  0.0000000E+00  0.0000000E+00
 H       5.67803699783883        6.45563066650343       0.319372930378688       0.0000000E+00  0.0000000E+00  0.0000000E+00
 H       5.26370149464367       0.106272521410793       0.865381656967730       0.0000000E+00  0.0000000E+00  0.0000000E+00
 O       2.94580595458759        3.05426823839329        6.96976168820794       0.0000000E+00  0.0000000E+00  0.0000000E+00
 H       3.02851965377638        3.62020235473780       3.808754530875280E-002  0.0000000E+00  0.0000000E+00  0.0000000E+00
 H       2.65984671098323        2.21166364590655        7.32257417624874       0.0000000E+00  0.0000000E+00  0.0000000E+00
 O       5.58225787880389        6.92808401410990        4.91831020994503       0.0000000E+00  0.0000000E+00  0.0000000E+00
 H       6.37912066861430        7.26326689633226        4.50734309486094       0.0000000E+00  0.0000000E+00  0.0000000E+00
 H       4.87408361416102        7.22691416761882        4.34785285811989       0.0000000E+00  0.0000000E+00  0.0000000E+00
 O       5.79863107002616        2.98343597879762        3.05867644608747       0.0000000E+00  0.0000000E+00  0.0000000E+00
 H       5.37697691370303        3.44825441967820        2.33591546936504       0.0000000E+00  0.0000000E+00  0.0000000E+00
 H       5.56569532537902        3.48887828335225        3.83745809432540       0.0000000E+00  0.0000000E+00  0.0000000E+00
 O       2.03481890927217        6.66301194032770       0.930806949654432       0.0000000E+00  0.0000000E+00  0.0000000E+00
 H       1.49080576645569        5.91728614344236        1.18413396420793       0.0000000E+00  0.0000000E+00  0.0000000E+00
 H       1.42187397299855        7.28508738395185       0.538949210753765       0.0000000E+00  0.0000000E+00  0.0000000E+00
 O       1.93572626450350        1.89032113154699        4.70834226230564       0.0000000E+00  0.0000000E+00  0.0000000E+00
 H       1.51177666959735        1.06785642344035        4.95339406274363       0.0000000E+00  0.0000000E+00  0.0000000E+00
 H       2.81724433647519        1.63437503313194        4.43695817380103       0.0000000E+00  0.0000000E+00  0.0000000E+00
 O       3.71689820865661       0.636932466353117        3.16267515634543       0.0000000E+00  0.0000000E+00  0.0000000E+00
 H       3.19634667810545       0.344682827420376        3.91090512940486       0.0000000E+00  0.0000000E+00  0.0000000E+00
 H       4.59945504572781       0.752446705199868        3.51478555091302       0.0000000E+00  0.0000000E+00  0.0000000E+00
 O       7.54034057836947        6.85161124626333        3.03771768502187       0.0000000E+00  0.0000000E+00  0.0000000E+00
 H      0.466858438434527        7.49885761125563        3.36294162451808       0.0000000E+00  0.0000000E+00  0.0000000E+00
 H       7.03208181733134        7.32058968280697        2.37592912521963       0.0000000E+00  0.0000000E+00  0.0000000E+00
 O      0.164487116309390        1.64095670948465        6.94181639882173       0.0000000E+00  0.0000000E+00  0.0000000E+00
 H       7.00039919348590        1.91953434065775        7.24734180742452       0.0000000E+00  0.0000000E+00  0.0000000E+00
 H      0.342118596599724        2.19800906579811        6.18394334247557       0.0000000E+00  0.0000000E+00  0.0000000E+00
 O       3.90146909564926        5.83510930151449        6.94401612407808       0.0000000E+00  0.0000000E+00  0.0000000E+00
 H       4.48339695867165        5.65545336828087        7.68247096216378       0.0000000E+00  0.0000000E+00  0.0000000E+00
 H       3.18446907519962        6.34439728833087        7.32186339105199       0.0000000E+00  0.0000000E+00  0.0000000E+00
 O      0.162640932464074        6.88720291984906        6.57895647737945       0.0000000E+00  0.0000000E+00  0.0000000E+00
 H      0.647153729076353        7.68931178818267        6.38376284720795       0.0000000E+00  0.0000000E+00  0.0000000E+00
 H      0.554555627846763        6.56123340703311        7.38912842718865       0.0000000E+00  0.0000000E+00  0.0000000E+00
 O      9.643303759809507E-002   4.60134218593249       0.652073769838891       0.0000000E+00  0.0000000E+00  0.0000000E+00
 H      0.675210339128919        4.63023339508328        7.58943313666731       0.0000000E+00  0.0000000E+00  0.0000000E+00
 H       7.04161731146254        4.08837336035618       0.361311981572258       0.0000000E+00  0.0000000E+00  0.0000000E+00
 O       4.02656417260363       0.585884759281182        6.87254666036140       0.0000000E+00  0.0000000E+00  0.0000000E+00
 H       4.77638895726625       0.536600329680004        6.27961691974743       0.0000000E+00  0.0000000E+00  0.0000000E+00
 H       4.17462073042707        7.58255891038715        7.50560013579361       0.0000000E+00  0.0000000E+00  0.0000000E+00
# total energy =          -114.1558567634 ev
 
 CRYSTAL
 PRIMVEC
   7.69920841570000       0.0000000E+00  0.0000000E+00
  0.0000000E+00   7.69920841570000       0.0000000E+00
  0.0000000E+00  0.0000000E+00   7.69920841570000     
 PRIMCOORD
          51           1
 O       3.73249342381357        4.39733406018385        2.93251359267025       0.0000000E+00  0.0000000E+00  0.0000000E+00
 H       3.22815075818249        4.72956779987144        3.67513803196502       0.0000000E+00  0.0000000E+00  0.0000000E+00
 H       4.54735504767247        4.07745252892684        3.31969336993392       0.0000000E+00  0.0000000E+00  0.0000000E+00
 O       1.91353178730107        2.93742428342527        1.71631407017623       0.0000000E+00  0.0000000E+00  0.0000000E+00
 H       1.55389745476891        3.59382736000167        1.11963158515920       0.0000000E+00  0.0000000E+00  0.0000000E+00
 H       2.57245317740447        3.41046104703582        2.22453711366833       0.0000000E+00  0.0000000E+00  0.0000000E+00
 O       1.61237524787116        5.59480859210111        4.67245223851920       0.0000000E+00  0.0000000E+00  0.0000000E+00
 H       1.64344539888375        5.94493150573115        3.78212621336473       0.0000000E+00  0.0000000E+00  0.0000000E+00
 H      0.728572121455822        5.79729128800535        4.97924961725280       0.0000000E+00  0.0000000E+00  0.0000000E+00
 O       5.70121425593118        3.11190153788044        6.77324459031434       0.0000000E+00  0.0000000E+00  0.0000000E+00
 H       5.89526120688920        2.69933675161584        7.61489054792262       0.0000000E+00  0.0000000E+00  0.0000000E+00
 H       4.92244856280781        3.64285112556625        6.94012290091914       0.0000000E+00  0.0000000E+00  0.0000000E+00
 O       5.69242190648001        6.94425225360431       0.930903078023392       0.0000000E+00  0.0000000E+00  0.0000000E+00
 H       5.69190443952456        6.39486860996445       0.147060501781895       0.0000000E+00  0.0000000E+00  0.0000000E+00
 H       5.15123634794216        7.69802753934415       0.696014062022463       0.0000000E+00  0.0000000E+00  0.0000000E+00
 O       2.93538629600224        3.03279644026655        6.84429348165929       0.0000000E+00  0.0000000E+00  0.0000000E+00
 H       3.03675490125321        3.66988399336897        7.55145378565794       0.0000000E+00  0.0000000E+00  0.0000000E+00
 H       2.83508859341261        2.19223730114723        7.29109606054428       0.0000000E+00  0.0000000E+00  0.0000000E+00
 O       5.57611293304083        6.93979121200839        4.78720762721813       0.0000000E+00  0.0000000E+00  0.0000000E+00
 H       6.36993901941500        7.28187139992362        4.37604691699934       0.0000000E+00  0.0000000E+00  0.0000000E+00
 H       4.86537448532437        7.23108577277456        4.21604199641949       0.0000000E+00  0.0000000E+00  0.0000000E+00
 O       5.75686918805905        2.96163745969335        2.92112972493165       0.0000000E+00  0.0000000E+00  0.0000000E+00
 H       5.35999345346015        3.46640965884867        2.21125190569340       0.0000000E+00  0.0000000E+00  0.0000000E+00
 H       5.52310249071755        3.44077473293642        3.71612182841648       0.0000000E+00  0.0000000E+00  0.0000000E+00
 O       2.07401777918783        6.70353947019809       0.796939614948761       0.0000000E+00  0.0000000E+00  0.0000000E+00
 H       1.58700850329632        5.97014217527958        1.17268183110468       0.0000000E+00  0.0000000E+00  0.0000000E+00
 H       1.39999920756217        7.27935855685584       0.435881192329449       0.0000000E+00  0.0000000E+00  0.0000000E+00
 O       1.88292142908383        1.85999141804857        4.51737045607597       0.0000000E+00  0.0000000E+00  0.0000000E+00
 H       1.50004964861897        1.05274557585756        4.86087473550917       0.0000000E+00  0.0000000E+00  0.0000000E+00
 H       2.80280190063763        1.64348393637941        4.36513291656854       0.0000000E+00  0.0000000E+00  0.0000000E+00
 O       3.71657772179773       0.564760673955955        3.02799244325450       0.0000000E+00  0.0000000E+00  0.0000000E+00
 H       3.20515899097657       0.319520957017256        3.79905677455318       0.0000000E+00  0.0000000E+00  0.0000000E+00
 H       4.54265507265886       0.893565256769876        3.38255639618095       0.0000000E+00  0.0000000E+00  0.0000000E+00
 O       7.53902071553598        6.81833056976889        2.94545868774474       0.0000000E+00  0.0000000E+00  0.0000000E+00
 H      0.486565414739826        7.44064152487646        3.27813168561991       0.0000000E+00  0.0000000E+00  0.0000000E+00
 H       6.99828530461642        7.33193706259454        2.34542083401799       0.0000000E+00  0.0000000E+00  0.0000000E+00
 O      0.153197198915810        1.56194371972941        6.86154259484457       0.0000000E+00  0.0000000E+00  0.0000000E+00
 H       6.99926244470719        1.85383671387585        7.18275444332850       0.0000000E+00  0.0000000E+00  0.0000000E+00
 H      0.337007853470903        2.13299983442757        6.11566030041881       0.0000000E+00  0.0000000E+00  0.0000000E+00
 O       3.94739817054700        5.72408057658942        6.77475656768066       0.0000000E+00  0.0000000E+00  0.0000000E+00
 H       4.50872182683908        5.62588965695305        7.54385092872348       0.0000000E+00  0.0000000E+00  0.0000000E+00
 H       3.25327853831526        6.31893373031411        7.05862185554487       0.0000000E+00  0.0000000E+00  0.0000000E+00
 O      0.246279613005964        6.83781310374089        6.51066074504969       0.0000000E+00  0.0000000E+00  0.0000000E+00
 H      0.672523900257104        7.66394375493598        6.28250335476441       0.0000000E+00  0.0000000E+00  0.0000000E+00
 H      0.635887199846773        6.59032239343120        7.34922267871142       0.0000000E+00  0.0000000E+00  0.0000000E+00
 O      0.107438794550471        4.46718665922391       0.460149726263193       0.0000000E+00  0.0000000E+00  0.0000000E+00
 H      0.707821093555282        4.66647025683447        7.44098568789418       0.0000000E+00  0.0000000E+00  0.0000000E+00
 H       7.11399499490871        3.94453423766122       5.604677549840620E-002  0.0000000E+00  0.0000000E+00  0.0000000E+00
 O       4.03066667017718       0.537233449240913        6.80532423847535       0.0000000E+00  0.0000000E+00  0.0000000E+00
 H       4.77193018689257       0.419570089926055        6.21125726189655       0.0000000E+00  0.0000000E+00  0.0000000E+00
 H       4.15353834247690        7.56662527602704        7.47799067093804       0.0000000E+00  0.0000000E+00  0.0000000E+00
# total energy =          -117.4944001511 ev
 
 CRYSTAL
 PRIMVEC
   7.69920841570000       0.0000000E+00  0.0000000E+00
  0.0000000E+00   7.69920841570000       0.0000000E+00
  0.0000000E+00  0.0000000E+00   7.69920841570000     
 PRIMCOORD
          51           1
 O       3.64165062592281        4.43826608551553        2.90918686331324       0.0000000E+00  0.0000000E+00  0.0000000E+00
 H       3.18094969892719        4.74574765846973        3.68985425609938       0.0000000E+00  0.0000000E+00  0.0000000E+00
 H       4.48924291352098        4.13503278629960        3.23456160149975       0.0000000E+00  0.0000000E+00  0.0000000E+00
 O       1.87889624897660        2.93825427983374        1.70875970616925       0.0000000E+00  0.0000000E+00  0.0000000E+00
 H       1.56094017533276        3.60492337330277        1.09991810521945       0.0000000E+00  0.0000000E+00  0.0000000E+00
 H       2.54593595496220        3.38660030073646        2.22864018875987       0.0000000E+00  0.0000000E+00  0.0000000E+00
 O       1.51552284176562        5.50696401066433        4.62198776119774       0.0000000E+00  0.0000000E+00  0.0000000E+00
 H       1.65904471830549        5.86897946869030        3.74758618348598       0.0000000E+00  0.0000000E+00  0.0000000E+00
 H      0.674668804708906        5.87185868248274        4.89775615468034       0.0000000E+00  0.0000000E+00  0.0000000E+00
 O       5.58972382109837        2.94619793562632        6.80714481450039       0.0000000E+00  0.0000000E+00  0.0000000E+00
 H       5.60550728029410        2.48068009947690        7.64337197660566       0.0000000E+00  0.0000000E+00  0.0000000E+00
 H       4.88650005189326        3.58843908183959        6.90324101908505       0.0000000E+00  0.0000000E+00  0.0000000E+00
 O       5.66271787448790        6.99872034701838       0.965223270412271       0.0000000E+00  0.0000000E+00  0.0000000E+00
 H       5.59677425791889        6.38400575403365       0.234463906048485       0.0000000E+00  0.0000000E+00  0.0000000E+00
 H       5.18369695103778       7.426904145422908E-002  0.671076682482216       0.0000000E+00  0.0000000E+00  0.0000000E+00
 O       2.81042384033088        3.05318272934962        6.83416882014305       0.0000000E+00  0.0000000E+00  0.0000000E+00
 H       2.89020015495425        3.64434838157490        7.58276133363367       0.0000000E+00  0.0000000E+00  0.0000000E+00
 H       2.83507839071736        2.17629045852281        7.21716221239609       0.0000000E+00  0.0000000E+00  0.0000000E+00
 O       5.56916404182362        6.90415142906655        4.75924803587438       0.0000000E+00  0.0000000E+00  0.0000000E+00
 H       6.36648318416618        7.21848946851299        4.33297861143610       0.0000000E+00  0.0000000E+00  0.0000000E+00
 H       4.86295638964925        7.16011074735044        4.16596275930501       0.0000000E+00  0.0000000E+00  0.0000000E+00
 O       5.64959008068394        2.94137962593558        2.92445357104854       0.0000000E+00  0.0000000E+00  0.0000000E+00
 H       5.16183013865211        3.38307612957572        2.22930878208643       0.0000000E+00  0.0000000E+00  0.0000000E+00
 H       5.46865095270865        3.45765843220675        3.70991462429228       0.0000000E+00  0.0000000E+00  0.0000000E+00
 O       1.98933209102735        6.66570549568064       0.743869187416788       0.0000000E+00  0.0000000E+00  0.0000000E+00
 H       1.46744403146887        5.92057503397444        1.04160277357681       0.0000000E+00  0.0000000E+00  0.0000000E+00
 H       1.34750760890451        7.28386344360796       0.394335318439786       0.0000000E+00  0.0000000E+00  0.0000000E+00