ITEM: TIMESTEP
 0
ITEM: NUMBER OF ATOMS 
           6
ITEM: BOX BOUNDS pp pp pp
  0.000000000000000E+000  0.000000000000000E+000
  0.000000000000000E+000  0.000000000000000E+000
  0.000000000000000E+000  0.000000000000000E+000
ITEM: ATOMS id type x y z  
           1           1 -0.783445425330342      -0.727577028350026        1.31192774756831     
           2           2  -1.34983439263351      -0.826638900781688        2.07718726116376     
           3           2 -0.503754603279958       -1.61892906980535        1.10336978858949     
           4           1  0.783445425330399       0.727577028350026       -1.31192774756831     
           5           2  0.338029180731894       0.385055698953579       -2.08685700108574     
           6           2  0.232575413022289       0.454675682701804      -0.578239172570394     
