ITEM: TIMESTEP
 0
ITEM: NUMBER OF ATOMS 
           6
ITEM: BOX BOUNDS pp pp pp
  0.000000000000000E+000  0.000000000000000E+000
  0.000000000000000E+000  0.000000000000000E+000
  0.000000000000000E+000  0.000000000000000E+000
ITEM: ATOMS id type x y z  
           1           1 -0.783445425330342      -0.727577028350026        1.31192774756831     
           2           2  -1.34983439263351      -0.826638900781688        2.07718726116376     
           3           2 -0.503754603279958       -1.61892906980535        1.10336978858949     
           4           1  0.783445425330399       0.727577028350026       -1.31192774756831     
           5           2  0.338029180731894       0.385055698953579       -2.08685700108574     
           6           2  0.232575413022289       0.454675682701804      -0.578239172570394     
ITEM: TIMESTEP
 0
ITEM: NUMBER OF ATOMS 
           6
ITEM: BOX BOUNDS pp pp pp
  0.000000000000000E+000  0.000000000000000E+000
  0.000000000000000E+000  0.000000000000000E+000
  0.000000000000000E+000  0.000000000000000E+000
ITEM: ATOMS id type x y z  
           1           1 -0.711341125064955      -0.199745029931939        2.07462319634535     
           2           2  -1.39365320438234      -0.103844331397059        2.73906666454928     
           3           2 -0.648441639812403       -1.14382497656753        1.92974894357866     
           4           1   1.68901074240502       1.955100903966273E-002 -0.427547014219381     
           5           2  0.787370850508432      -0.133189118185464      -0.710297432215191     
           6           2   1.71035883722887      -0.283093937259714       0.480297760687791     
ITEM: TIMESTEP
 0
ITEM: NUMBER OF ATOMS 
           6
ITEM: BOX BOUNDS pp pp pp
  0.000000000000000E+000  0.000000000000000E+000
  0.000000000000000E+000  0.000000000000000E+000
  0.000000000000000E+000  0.000000000000000E+000
ITEM: ATOMS id type x y z  
           1           1 -0.947723084314407      -0.203256891214349        2.01527292814658     
           2           2  -1.77786745155421      -0.433741807444266        2.43236868805224     
           3           2 -0.629314011946608       -1.02590563877187        1.64365949892864     
           4           1   1.45866032385195       -1.47241371442181      -0.124866781079803     
           5           2  0.782944763700456       -1.71543214943917      -0.757782543256502     
           6           2   1.07464573430242       -1.67876647057901       0.727297038287608     
ITEM: TIMESTEP
 0
ITEM: NUMBER OF ATOMS 
           6
ITEM: BOX BOUNDS pp pp pp
  0.000000000000000E+000  0.000000000000000E+000
  0.000000000000000E+000  0.000000000000000E+000
  0.000000000000000E+000  0.000000000000000E+000
ITEM: ATOMS id type x y z  
           1           1 -0.702292326682808      -0.532439492754551        1.62631582694308     
           2           2  -1.52418298210096       -1.02296778356907        1.63678418152643     
           3           2 -3.009383294600114E-002  -1.19391536559492        1.46251504957243     
           4           1   1.41617950478252      -0.810038998395420       -1.09146112824764     
           5           2  0.890479700767911      -0.879305463954105       -1.88837625096075     
           6           2  0.786302740657695      -0.582879947607850      -0.407439295511028     
ITEM: TIMESTEP
 0
ITEM: NUMBER OF ATOMS 
           6
ITEM: BOX BOUNDS pp pp pp
  0.000000000000000E+000  0.000000000000000E+000
  0.000000000000000E+000  0.000000000000000E+000
  0.000000000000000E+000  0.000000000000000E+000
ITEM: ATOMS id type x y z  
           1           1 -0.838358618672824      -0.923985379979812        1.49670097813805     
           2           2  -1.28186672611216       -1.73811795188384        1.73486175156909     
           3           2  4.861998760864851E-002  -1.19445663657402        1.25932766170481     
           4           1   1.73518800862892       0.658415791864118      -0.157432713514620     
           5           2   1.27891405861629       0.762521314063918      -0.992422511529081     
           6           2   1.04276269173614       0.451590180095138       0.470263221506280     
ITEM: TIMESTEP
 0
ITEM: NUMBER OF ATOMS 
           6
ITEM: BOX BOUNDS pp pp pp
  0.000000000000000E+000  0.000000000000000E+000
  0.000000000000000E+000  0.000000000000000E+000
  0.000000000000000E+000  0.000000000000000E+000
ITEM: ATOMS id type x y z  
           1           1  5.744799666180997E-002  -1.28157674201022        1.15380220899399     
           2           2  0.207022984690393       -2.11464174671247       0.706743084383556     
           3           2  0.808114040175452       -1.18557695701440        1.73990490681710     
           4           1   1.44892738733693       0.389946630492714       -1.53026160304165     
           5           2   1.41877053092163       0.531221412835938       -2.47649827527850     
           6           2  0.642446592241316       0.787838083496722       -1.20238516477909     
ITEM: TIMESTEP
 0
ITEM: NUMBER OF ATOMS 
           6
ITEM: BOX BOUNDS pp pp pp
  0.000000000000000E+000  0.000000000000000E+000
  0.000000000000000E+000  0.000000000000000E+000
  0.000000000000000E+000  0.000000000000000E+000
ITEM: ATOMS id type x y z  
           1           1 -0.249974979945224       -1.93451207620741       0.683260395980538     
           2           2 -7.740365549297602E-002  -2.42497164937083      -0.120418883999913     
           3           2  0.141778582086951       -2.46507238869907        1.37699430854575     
           4           1   1.52213715057934       7.242779418659492E-002  -1.48834366552946     
           5           2   1.43979519082311       0.249441477915804       -2.42542306314579     
           6           2   1.46442425817084       0.934030293364221       -1.07537611782123     
ITEM: TIMESTEP
 0
ITEM: NUMBER OF ATOMS 
           6
ITEM: BOX BOUNDS pp pp pp
  0.000000000000000E+000  0.000000000000000E+000
  0.000000000000000E+000  0.000000000000000E+000
  0.000000000000000E+000  0.000000000000000E+000
ITEM: ATOMS id type x y z  
           1           1 -0.503272759875023       -2.17299343423584       0.723441610617304     
           2           2  -1.19114049703522       -2.74658257019849       0.385706034640339     
           3           2 -0.156508281344513       -2.63703416245161        1.48544714798933     
           4           1   1.04292745639929      -0.469709281197246       -1.86040446495743     
           5           2   1.62618940773286      -0.669153529906508       -2.59270175962962     
           6           2  0.171456355051226      -0.422907783639386       -2.25357056133525     
ITEM: TIMESTEP
 0
ITEM: NUMBER OF ATOMS 
           6
ITEM: BOX BOUNDS pp pp pp
  0.000000000000000E+000  0.000000000000000E+000
  0.000000000000000E+000  0.000000000000000E+000
  0.000000000000000E+000  0.000000000000000E+000
ITEM: ATOMS id type x y z  
           1           1  -1.64106665056904      -0.381291183658301      -0.782313727476543     
           2           2  -1.90812632452656       -1.28522269775450      -0.949103380543502     
           3           2  -1.10535846335124      -0.431506434297264       9.347189046612497E-003
           4           1   1.47280406688803       -1.32109553509231       -1.91065540848653     
           5           2   2.15296532319745       -1.90890647539942       -1.58188374931912     
           6           2   1.22367355974324       -1.69203165505499       -2.75716130056068     
ITEM: TIMESTEP
 0
ITEM: NUMBER OF ATOMS 
           6
ITEM: BOX BOUNDS pp pp pp
  0.000000000000000E+000  0.000000000000000E+000
  0.000000000000000E+000  0.000000000000000E+000
  0.000000000000000E+000  0.000000000000000E+000
ITEM: ATOMS id type x y z  
           1           1 -0.707833788789681       0.552611245261589       -1.11180667978400     
           2           2  -1.32210238849881        1.01489176348288       -1.68207210034289     
           3           2  -1.19160985844364       0.418154471630973      -0.296874823458454     
           4           1   1.01897832419645       -2.36574632149169       -1.79358580930106     
           5           2   1.05675537100743       -3.08522410876075       -1.16338231172152     
           6           2  0.247993371430630       -2.55528702033631       -2.32827110561061     
ITEM: TIMESTEP
 0
ITEM: NUMBER OF ATOMS 
           6
ITEM: BOX BOUNDS pp pp pp
  0.000000000000000E+000  0.000000000000000E+000
  0.000000000000000E+000  0.000000000000000E+000
  0.000000000000000E+000  0.000000000000000E+000
ITEM: ATOMS id type x y z  
           1           1 -0.642397888464097       0.619212745431884      -0.299329205280749     
           2           2 -0.412335454733941        1.51999761427469      -7.153601694806862E-002
           3           2  -1.10801225442145       0.288825261245771       0.468967099868832     
           4           1   2.26726697183576       -1.06922187003854       -1.06100974699476     
           5           2   2.96118351653397      -0.873975108335448      -0.431255532209832     
           6           2   2.23858676544073       -2.02528591883460       -1.09776325513050     
ITEM: TIMESTEP
 0
ITEM: NUMBER OF ATOMS 
           6
ITEM: BOX BOUNDS pp pp pp
  0.000000000000000E+000  0.000000000000000E+000
  0.000000000000000E+000  0.000000000000000E+000
  0.000000000000000E+000  0.000000000000000E+000
ITEM: ATOMS id type x y z  
           1           1  0.313269962142794        1.21806268878507       -1.11602938814933     
           2           2 -6.486118407056245E-002   1.24321359021689      -0.237043547295623     
           3           2  0.312910872604598       0.290144353901037       -1.35097464739057     
           4           1   2.56152440989782       -1.40370804395026       -1.30489546471863     
           5           2   3.02219039217516      -0.976158268282056      -0.582939869062414     
           6           2   1.89193184763799       -1.93887357013186      -0.878896051394456     
ITEM: TIMESTEP
 0
ITEM: NUMBER OF ATOMS 
           6
ITEM: BOX BOUNDS pp pp pp
  0.000000000000000E+000  0.000000000000000E+000
  0.000000000000000E+000  0.000000000000000E+000
  0.000000000000000E+000  0.000000000000000E+000
ITEM: ATOMS id type x y z  
           1           1 -0.355610111173811       0.210191651021814       -2.41670419768864     
           2           2 -0.188309420126556        1.09666758174725       -2.09669991174806     
           3           2 -0.897785264792258      -0.191662016769679       -1.73788789523228     
           4           1   2.09098225621176       -2.07837798314829       -1.57843062683921     
           5           2   2.60757951650315       -1.89792290166624      -0.793067606174531     
           6           2   1.18876312098042       -1.88866841667292       -1.32105395266376     
ITEM: TIMESTEP
 0
ITEM: NUMBER OF ATOMS 
           6
ITEM: BOX BOUNDS pp pp pp
  0.000000000000000E+000  0.000000000000000E+000
  0.000000000000000E+000  0.000000000000000E+000
  0.000000000000000E+000  0.000000000000000E+000
ITEM: ATOMS id type x y z  
           1           1  -1.67579479598028      -0.746584910933297       -3.06793313519423     
           2           2  -1.75849661462183      -2.535804122696909E-002  -2.44405490059411     
           3           2  -2.21394573312911       -1.44656721825117       -2.69827088626018     
           4           1  0.279922070837312       -3.46418856456775       -2.23504860704421     
           5           2   1.21619094590293       -3.66310086551797       -2.24319293727204     
           6           2  0.215731556888074       -2.63055035917707       -1.76904564521736     
ITEM: TIMESTEP
 0
ITEM: NUMBER OF ATOMS 
           6
ITEM: BOX BOUNDS pp pp pp
  0.000000000000000E+000  0.000000000000000E+000
  0.000000000000000E+000  0.000000000000000E+000
  0.000000000000000E+000  0.000000000000000E+000
ITEM: ATOMS id type x y z  
           1           1  -2.39486208507393       -2.26641247313750       -2.81793739773988     
           2           2  -2.98357500938486       -1.74431061219862       -3.36296820379967     
           3           2  -2.96306396288054       -2.91772776307177       -2.40663840776536     
           4           1  0.664129400290826       -3.24069405690573       -1.51000283638698     
           5           2  0.956147086456719       -4.03808422672861       -1.06827166470337     
           6           2 -0.291537855103512       -3.28776421559430       -1.48323836128380     
ITEM: TIMESTEP
 0
ITEM: NUMBER OF ATOMS 
           6
ITEM: BOX BOUNDS pp pp pp
  0.000000000000000E+000  0.000000000000000E+000
  0.000000000000000E+000  0.000000000000000E+000
  0.000000000000000E+000  0.000000000000000E+000
ITEM: ATOMS id type x y z  
           1           1  -2.20652555099868       -1.48830462430172       -3.22159574352353     
           2           2  -2.74182167322877       -2.27173888723394       -3.34777283015190     
           3           2  -2.23353700051460       -1.32857138891836       -2.27820424732050     
           4           1  0.902227836745863       -2.08381150070217       -1.84369501981031     
           5           2   1.72782877713575       -1.71903523453031       -2.16236915253195     
           6           2   1.09904623401174       -2.38374188129426      -0.956262698280926     
ITEM: TIMESTEP
 0
ITEM: NUMBER OF ATOMS 
           6
ITEM: BOX BOUNDS pp pp pp
  0.000000000000000E+000  0.000000000000000E+000
  0.000000000000000E+000  0.000000000000000E+000
  0.000000000000000E+000  0.000000000000000E+000
ITEM: ATOMS id type x y z  
           1           1  -1.65936736566675      -0.842834085583403       -3.27818626393796     
           2           2  -1.62605020124793       -1.78704333096516       -3.12459359649758     
           3           2  -1.69920507896248      -0.458495121071512       -2.40244180523070     
           4           1  0.914881470644575       -1.91885491141532       -1.25954203802862     
           5           2   1.10656127068851      -0.981250626125630       -1.23982152935475     
           6           2   1.75419816141040       -2.33114407834907       -1.46398512407076     
ITEM: TIMESTEP
 0
ITEM: NUMBER OF ATOMS 
           6
ITEM: BOX BOUNDS pp pp pp
  0.000000000000000E+000  0.000000000000000E+000
  0.000000000000000E+000  0.000000000000000E+000
  0.000000000000000E+000  0.000000000000000E+000
ITEM: ATOMS id type x y z  
           1           1  -1.19862559520288      -0.764498856023000       -3.33291132126975     
           2           2  -1.13280106791716       -1.64561762950956       -2.96476912236030     
           3           2 -0.452325505562655      -0.293270407979824       -2.96249025551214     
           4           1   1.13300934079595       -1.56691969566091      -0.931613121060891     
           5           2  0.226971845452432       -1.63595622885443      -0.630678154469942     
           6           2   1.07217707898868       -1.60231012472710       -1.88622235705925     
ITEM: TIMESTEP
 0
ITEM: NUMBER OF ATOMS 
           6
ITEM: BOX BOUNDS pp pp pp
  0.000000000000000E+000  0.000000000000000E+000
  0.000000000000000E+000  0.000000000000000E+000
  0.000000000000000E+000  0.000000000000000E+000
ITEM: ATOMS id type x y z  
           1           1 -0.607587617022248       -1.91816064518961       -3.72948292453337     
           2           2  0.156067513309327       -1.34277308894683       -3.77411298211748     
           3           2 -0.313422089701050       -2.66766381727938       -3.21185035449705     
           4           1   1.52269356409353       -1.87356165352692       -1.01361228260942     
           5           2   1.91808604992542       -1.34117334994152       -1.70387260767090     
           6           2  0.579696059157376       -1.76930282788939       -1.14056756198105     
ITEM: TIMESTEP
 0
ITEM: NUMBER OF ATOMS 
           6
ITEM: BOX BOUNDS pp pp pp
  0.000000000000000E+000  0.000000000000000E+000
  0.000000000000000E+000  0.000000000000000E+000
  0.000000000000000E+000  0.000000000000000E+000
ITEM: ATOMS id type x y z  
           1           1 -0.573170495951058       -2.08134949799083       -3.88690014518316     
           2           2 -0.113850411820940       -2.89700284327618       -3.68698386110341     
           3           2 -0.281802992762136       -1.85192287989931       -4.76934008364681     
           4           1   1.88906021623460       -3.40820709241004       -1.82585425733872     
           5           2   1.64514059936943       -4.04708215254154       -1.15609779559224     
           6           2   2.54922104185671       -3.85563983569558       -2.35521563159016     
ITEM: TIMESTEP
 0
ITEM: NUMBER OF ATOMS 
           6
ITEM: BOX BOUNDS pp pp pp
  0.000000000000000E+000  0.000000000000000E+000
  0.000000000000000E+000  0.000000000000000E+000
  0.000000000000000E+000  0.000000000000000E+000
ITEM: ATOMS id type x y z  
           1           1  -1.14568939501571       -3.14594208187990       -3.18272267801378     
           2           2  -1.31446769303461       -3.98133835590274       -3.61845056496543     
           3           2  -1.89796063892088       -2.59988229046060       -3.41106128576045     
           4           1   1.27232827632970       -3.18985941544509      -0.726592582863614     
           5           2   1.18531168667373       -2.77031990323002       -1.58254033291372     
           6           2  0.909158408440667       -4.06669671357544      -0.851074869412250     
ITEM: TIMESTEP
 0
ITEM: NUMBER OF ATOMS 
           6
ITEM: BOX BOUNDS pp pp pp
  0.000000000000000E+000  0.000000000000000E+000
  0.000000000000000E+000  0.000000000000000E+000
  0.000000000000000E+000  0.000000000000000E+000
ITEM: ATOMS id type x y z  
           1           1  0.826688275963617       -3.99098935121595       -4.49316494642263     
           2           2  0.433323356284877       -3.12766732598951       -4.36599985401989     
           3           2  9.007275281296724E-002  -4.60014899722853       -4.44262845740227     
           4           1  0.622673758659804       -5.36499850449479       -1.31935189988183     
           5           2  0.728667777709156       -4.72718809677910      -0.613522606258962     
           6           2  0.254309660693962       -6.13778723208538      -0.891172832389975     
ITEM: TIMESTEP
 0
ITEM: NUMBER OF ATOMS 
           6
ITEM: BOX BOUNDS pp pp pp
  0.000000000000000E+000  0.000000000000000E+000
  0.000000000000000E+000  0.000000000000000E+000
  0.000000000000000E+000  0.000000000000000E+000
ITEM: ATOMS id type x y z  
           1           1   1.16916870697181       -2.26116457465564       -3.15819619292046     
           2           2   1.77512913636273       -2.49854068050486       -3.86011953801234     
           3           2  0.693731288514396       -3.06985091526789       -2.96788722403853     
           4           1 -0.102026356591595       -4.59659669462557      -0.965828119938439     
           5           2  0.742162214534386       -4.34296724498278      -0.592666494560087     
           6           2  0.104398282428765       -4.87801733741788       -1.85713229372825     
ITEM: TIMESTEP
 0
ITEM: NUMBER OF ATOMS 
           6
ITEM: BOX BOUNDS pp pp pp
  0.000000000000000E+000  0.000000000000000E+000
  0.000000000000000E+000  0.000000000000000E+000
  0.000000000000000E+000  0.000000000000000E+000
ITEM: ATOMS id type x y z  
           1           1   2.35815524729719       -2.49350048948070       -2.24581128128301     
           2           2   2.60197673076488       -3.36660941510914       -1.93846176007255     
           3           2   3.19304743958431       -2.05482591943807       -2.40937010512044     
           4           1 -0.292625039044446       -3.72821914752992      -0.423074934161913     
           5           2  -1.01154426075393       -3.09741699453709      -0.384660920611161     
           6           2 -0.521564860759290       -4.39286677610200       0.226587999878626     
ITEM: TIMESTEP
 0
ITEM: NUMBER OF ATOMS 
           6
ITEM: BOX BOUNDS pp pp pp
  0.000000000000000E+000  0.000000000000000E+000
  0.000000000000000E+000  0.000000000000000E+000
  0.000000000000000E+000  0.000000000000000E+000
ITEM: ATOMS id type x y z  
           1           1   1.95616597503826       -2.25110530643402       -3.05509589929049     
           2           2   2.62767498443189       -1.76667674564602       -3.53534214841357     
           3           2   1.35106275586221       -1.57791755342169       -2.74380795648482     
           4           1  0.391652085832983       -3.90170837357152      -0.465746278362342     
           5           2   1.25496020091729       -4.22006475365232      -0.201965775496296     
           6           2 -0.176982169591341       -4.66902657419596      -0.401639316587510     
ITEM: TIMESTEP
 0
ITEM: NUMBER OF ATOMS 
           6
ITEM: BOX BOUNDS pp pp pp
  0.000000000000000E+000  0.000000000000000E+000
  0.000000000000000E+000  0.000000000000000E+000
  0.000000000000000E+000  0.000000000000000E+000
ITEM: ATOMS id type x y z  
           1           1   3.07130546415285       -3.62381643545304       -3.12053357399473     
           2           2   2.24841482043413       -4.11272179114850       -3.11315918227340     
           3           2   3.40084868357235       -3.69511022302898       -2.22468185502172     
           4           1  0.609553057339254       -3.06457660508790      -0.768581163550502     
           5           2  0.614389071508971       -3.75072165153445       -1.43597417235764     
           6           2 -0.254056118536845       -2.65933641909061      -0.847266759404998     
ITEM: TIMESTEP
 0
ITEM: NUMBER OF ATOMS 
           6
ITEM: BOX BOUNDS pp pp pp
  0.000000000000000E+000  0.000000000000000E+000
  0.000000000000000E+000  0.000000000000000E+000
  0.000000000000000E+000  0.000000000000000E+000
ITEM: ATOMS id type x y z  
           1           1   2.18222595863431       -3.33389675978971       -4.33213991996605     
           2           2   2.52561608464198       -3.21615393395442       -3.44644714686382     
           3           2   1.25376206649441       -3.52925294093689       -4.20555949699629     
           4           1  0.455667902476071       -2.53122275288396       -1.43097164509311     
           5           2  0.448850995817535       -3.10894755219927      -0.667807556550871     
           6           2 -0.376204610981447       -2.70542707475730       -1.87128155367343     
ITEM: TIMESTEP
 0
ITEM: NUMBER OF ATOMS 
           6
ITEM: BOX BOUNDS pp pp pp
  0.000000000000000E+000  0.000000000000000E+000
  0.000000000000000E+000  0.000000000000000E+000
  0.000000000000000E+000  0.000000000000000E+000
ITEM: ATOMS id type x y z  
           1           1   2.60732979282922       -2.63958419037397       -4.83800337527742     
           2           2   3.38870887318324       -3.18691416099301       -4.75984663501785     
           3           2   2.11979529403507       -2.80053621151119       -4.03014422952458     
           4           1 -2.075437957313501E-002  -1.87953984589888       -2.71656647797613     
           5           2 -4.074358674207651E-002  -1.00614870381980       -2.32538853312831     
           6           2 -0.156034842175640       -1.72679081294712       -3.65176633328505     
ITEM: TIMESTEP
 0
ITEM: NUMBER OF ATOMS 
           6
ITEM: BOX BOUNDS pp pp pp
  0.000000000000000E+000  0.000000000000000E+000
  0.000000000000000E+000  0.000000000000000E+000
  0.000000000000000E+000  0.000000000000000E+000
ITEM: ATOMS id type x y z  
           1           1  0.922104636029600       -3.30154916371848       -5.86277426771526     
           2           2   1.50635460731141       -4.03284076869802       -5.66253341388060     
           3           2  0.321408832796166       -3.26354189767010       -5.11849485801458     
           4           1  0.399550287438663       -2.10554248083137       -2.64651423062491     
           5           2  4.834370863710818E-002  -1.21696394830135       -2.70408132655755     
           6           2   1.33129367707352       -2.00853654537172       -2.84317623599669     
ITEM: TIMESTEP
 0
ITEM: NUMBER OF ATOMS 
           6
ITEM: BOX BOUNDS pp pp pp
  0.000000000000000E+000  0.000000000000000E+000
  0.000000000000000E+000  0.000000000000000E+000
  0.000000000000000E+000  0.000000000000000E+000
ITEM: ATOMS id type x y z  
           1           1   1.71608599319502       -3.80480357776461       -5.23098153971820     
           2           2   1.26976084766242       -4.56369251323598       -5.60663202632134     
           3           2   2.59600184725476       -4.12102992999513       -5.02608931456454     
           4           1  0.917625375387071       -2.41277626845294       -2.16844397906816     
           5           2  0.512883711548613       -3.19646992664060       -1.79663720711459     
           6           2   1.75248638257110       -2.71890951393007       -2.52273393757222     
ITEM: TIMESTEP
 0
ITEM: NUMBER OF ATOMS 
           6
ITEM: BOX BOUNDS pp pp pp
  0.000000000000000E+000  0.000000000000000E+000
  0.000000000000000E+000  0.000000000000000E+000
  0.000000000000000E+000  0.000000000000000E+000
ITEM: ATOMS id type x y z  
           1           1   2.32545689371908       -3.54133224901860       -5.07870069566716     
           2           2   2.05041064104173       -3.05628849438683       -4.30068144463180     
           3           2   1.51002424503148       -3.73703907419674       -5.54022022291613     
           4           1  0.713405328761744      -0.933120833491470       -3.46412236799629     
           5           2   1.13344641646489       -1.66467705146836       -3.91647491256888     
           6           2  0.189949371662606       -1.34481265686362       -2.77656470238167     
ITEM: TIMESTEP
 0
ITEM: NUMBER OF ATOMS 
           6
ITEM: BOX BOUNDS pp pp pp
  0.000000000000000E+000  0.000000000000000E+000
  0.000000000000000E+000  0.000000000000000E+000
  0.000000000000000E+000  0.000000000000000E+000
ITEM: ATOMS id type x y z  
           1           1   1.96212225519859       -3.00086253881696       -6.93758057037822     
           2           2   2.54047361732816       -3.72777443390214       -7.16853649411114     
           3           2   1.10239628796487       -3.40555137878093       -6.82212476033932     
           4           1  0.904968633148675       0.143290299828277       -5.92362685321623     
           5           2   1.77316093961512      -2.347952736315613E-002  -6.29058977195851     
           6           2  0.311594970982956      -0.377566415710127       -6.46478100771021     
ITEM: TIMESTEP
 0
ITEM: NUMBER OF ATOMS 
           6
ITEM: BOX BOUNDS pp pp pp
  0.000000000000000E+000  0.000000000000000E+000
  0.000000000000000E+000  0.000000000000000E+000
  0.000000000000000E+000  0.000000000000000E+000
ITEM: ATOMS id type x y z  
           1           1   2.26054374812356       -2.56953770658654       -8.59644528585824     
           2           2   2.83914683370001       -2.93746524050456       -9.26433722258694     
           3           2   1.57551586341611       -3.22839929195340       -8.48299904969247     
           4           1   1.12080677000031       0.653261549975552       -8.03045016988710     
           5           2  0.741767008274138       0.746476486105184       -7.15645264431066     
           6           2  0.702318366834144      -0.128274424087103       -8.39142221542643     
ITEM: TIMESTEP
 0
ITEM: NUMBER OF ATOMS 
           6
ITEM: BOX BOUNDS pp pp pp
  0.000000000000000E+000  0.000000000000000E+000
  0.000000000000000E+000  0.000000000000000E+000
  0.000000000000000E+000  0.000000000000000E+000
ITEM: ATOMS id type x y z  
           1           1   2.97624283071439       -2.51727628775813       -8.68794258087481     
           2           2   2.89331195647146       -2.15470237555824       -9.56992583938380     
           3           2   2.48822619384902       -3.34010854179715       -8.71985940801594     
           4           1   1.42199916165823       0.419798514360621       -7.70620807363651     
           5           2  0.765696824170501      -0.274252800363717       -7.64463003909222     
           6           2   1.06112441539089        1.13812581088310       -7.18658594884132     
ITEM: TIMESTEP
 0
ITEM: NUMBER OF ATOMS 
           6
ITEM: BOX BOUNDS pp pp pp
  0.000000000000000E+000  0.000000000000000E+000
  0.000000000000000E+000  0.000000000000000E+000
  0.000000000000000E+000  0.000000000000000E+000
ITEM: ATOMS id type x y z  
           1           1   3.38485945495941       -2.37239056371304       -7.68307316695403     
           2           2   3.95591153770276       -1.83156639870504       -8.22863762816704     
           3           2   3.43058460734442       -3.24333584698424       -8.07752894899577     
           4           1   1.73254498084276       0.619683126409504       -7.27099964256393     
           5           2   1.98756470598300      -4.219248260533921E-002  -6.62825750299208     
           6           2   2.12456049614974       0.320955463408703       -8.09155887815642     
ITEM: TIMESTEP
 0
ITEM: NUMBER OF ATOMS 
           6
ITEM: BOX BOUNDS pp pp pp
  0.000000000000000E+000  0.000000000000000E+000
  0.000000000000000E+000  0.000000000000000E+000
  0.000000000000000E+000  0.000000000000000E+000
ITEM: ATOMS id type x y z  
           1           1   3.39589792976551       -2.26499519878794       -7.63976907826954     
           2           2   3.81293784421204       -2.84702535083975       -8.27502528789029     
           3           2   3.57193214438572       -1.38392014692479       -7.96984565766673     
           4           1   1.52296268502832       0.520014998840569       -8.45246428059155     