ITEM: TIMESTEP
 0
ITEM: NUMBER OF ATOMS 
           4
ITEM: BOX BOUNDS pp pp pp
  -38.8496042078500        38.8496042078500     
  -38.8496042078500        38.8496042078500     
  -38.8496042078500        38.8496042078500     
ITEM: ATOMS id type x y z  
           1           1  0.000000000000000E+000  0.000000000000000E+000
  0.000000000000000E+000
           2           1   1.00000000000000       0.000000000000000E+000
  0.000000000000000E+000
           3           1   2.00000000000000       0.000000000000000E+000
  0.000000000000000E+000
           4           1   3.00000000000000       0.000000000000000E+000
  0.000000000000000E+000
ITEM: TIMESTEP
 0
ITEM: NUMBER OF ATOMS 
           4
ITEM: BOX BOUNDS pp pp pp
  -38.8496042078500        38.8496042078500     
  -38.8496042078500        38.8496042078500     
  -38.8496042078500        38.8496042078500     
ITEM: ATOMS id type x y z  
           1           1  -1.24135881549402        1.14929029259906     
 -0.378326689930960     
           2           1  -1.10914791793905        1.25412120966616     
  0.607335908220447     
           3           1  -1.65858397216433       0.363613966703845     
  0.289140382528769     
           4           1 -0.662114161861484       0.291208770121382     
  0.246650328835311     
ITEM: TIMESTEP
 0
ITEM: NUMBER OF ATOMS 
           4
ITEM: BOX BOUNDS pp pp pp
  -38.8496042078500        38.8496042078500     
  -38.8496042078500        38.8496042078500     
  -38.8496042078500        38.8496042078500     
ITEM: ATOMS id type x y z  
           1           1  -2.25120010088819       0.888758397860172     
  0.491121621838308     
           2           1  -2.35994136583733       0.777318882104363     
   1.47892553538865     
           3           1  -3.16689368239450       0.436547986491166     
  0.748445978532311     
           4           1  -2.39307065586704      -0.178979161339392     
  0.897859009756009     
ITEM: TIMESTEP
 0
ITEM: NUMBER OF ATOMS 
           4
ITEM: BOX BOUNDS pp pp pp
  -38.8496042078500        38.8496042078500     
  -38.8496042078500        38.8496042078500     
  -38.8496042078500        38.8496042078500     
ITEM: ATOMS id type x y z  
           1           1  -4.36145718650602       0.868214145281524     
 -0.512898982365471     
           2           1  -3.82712381941427       0.443745792246085     
  0.218069190733584     
           3           1  -4.82430491471281       0.967213671543193     
  0.518044799190166     
           4           1  -4.94462012295830       8.545662837716508E-002
  6.194309179153448E-002
ITEM: TIMESTEP
 0
ITEM: NUMBER OF ATOMS 
           4
ITEM: BOX BOUNDS pp pp pp
  -38.8496042078500        38.8496042078500     
  -38.8496042078500        38.8496042078500     
  -38.8496042078500        38.8496042078500     
ITEM: ATOMS id type x y z  
           1           1  -5.60692925434581      -0.797949405972195     
 -3.760965152291026E-002
           2           1  -5.19517904075093       -1.41247929827082     
 -0.710524782186515     
           3           1  -4.87807233169556      -0.309797409661072     
 -0.630625832278055     
           4           1  -4.36290665201765      -0.989296898041929     
 -0.108242096149016     
ITEM: TIMESTEP
 0
ITEM: NUMBER OF ATOMS 
           4
ITEM: BOX BOUNDS pp pp pp
  -38.8496042078500        38.8496042078500     
  -38.8496042078500        38.8496042078500     
  -38.8496042078500        38.8496042078500     
ITEM: ATOMS id type x y z  
           1           1  -3.32371275926817        1.83078437363793     
 -0.918170230366324     
           2           1  -3.92426323939878        2.49037547753734     
  -1.37014223887087     
           3           1  -3.58639273684054        2.87626868156335     
 -0.366734669259312     
           4           1  -2.89006702072452        2.78127617519942     
  -1.07814658988630     
ITEM: TIMESTEP
 0
ITEM: NUMBER OF ATOMS 
           4
ITEM: BOX BOUNDS pp pp pp
  -38.8496042078500        38.8496042078500     
  -38.8496042078500        38.8496042078500     
  -38.8496042078500        38.8496042078500     
ITEM: ATOMS id type x y z  
           1           1  -4.49721002031672        3.09050215752362     
  -1.74575813040861     
           2           1  -3.55574784800997        3.41596800723055     
  -1.65788914390041     
           3           1  -4.23911799399853        3.66094259528629     
 -0.779446681638461     
           4           1  -3.88684912139895        2.72508924155706     
 -0.788673908261562     
ITEM: TIMESTEP
 0
ITEM: NUMBER OF ATOMS 
           4
ITEM: BOX BOUNDS pp pp pp
  -38.8496042078500        38.8496042078500     
  -38.8496042078500        38.8496042078500     
  -38.8496042078500        38.8496042078500     
ITEM: ATOMS id type x y z  
           1           1  -3.98321576156937        3.40518869053715     
  -2.19819673199133     
           2           1  -4.80183584283439        3.37328083961033     
  -2.77164511815948     
           3           1  -4.70344437073589        4.25950235868095     
  -2.13824846208282     
           4           1  -4.04576434494343        4.30364890280581     
  -2.89025116574515     
ITEM: TIMESTEP
 0
ITEM: NUMBER OF ATOMS 
           4
ITEM: BOX BOUNDS pp pp pp
  -38.8496042078500        38.8496042078500     
  -38.8496042078500        38.8496042078500     
  -38.8496042078500        38.8496042078500     
ITEM: ATOMS id type x y z  
           1           1  -4.36954652285479        2.61409741080224     
  -4.21739874247501     
           2           1  -5.23112794933339        2.20218345460464     
  -3.92074349098488     
           3           1  -5.29477271896204        2.96625303415869     
  -4.72417248653290     
           4           1  -4.97947980434994        2.06200955497806     
  -5.01215531302559     
ITEM: TIMESTEP
 0
ITEM: NUMBER OF ATOMS 
           4
ITEM: BOX BOUNDS pp pp pp
  -38.8496042078500        38.8496042078500     
  -38.8496042078500        38.8496042078500     
  -38.8496042078500        38.8496042078500     
ITEM: ATOMS id type x y z  
           1           1  -4.11459800092915        2.20666299531952     
  -3.38702119423070     
           2           1  -3.62830832790902        1.35483053042837     
  -3.19233219692634     
           3           1  -4.71385814052481        1.23059143511656     
  -3.10907536354072     
           4           1  -4.39031072604159        1.38413569207573     
  -4.04274620047208     
ITEM: TIMESTEP
 0
ITEM: NUMBER OF ATOMS 
           4
ITEM: BOX BOUNDS pp pp pp
  -38.8496042078500        38.8496042078500     
  -38.8496042078500        38.8496042078500     
  -38.8496042078500        38.8496042078500     
ITEM: ATOMS id type x y z  
           1           1  -5.68786556231238        1.68269928574055     
  -4.02409396256574     
           2           1  -5.54314959178951        2.65828779139340     
  -3.85891419530116     
           3           1  -6.54095228404170        2.36903805707758     
  -4.11362488739813     
           4           1  -6.30078168140120        2.01664893678474     
  -3.20911397561953     
ITEM: TIMESTEP
 0
ITEM: NUMBER OF ATOMS 
           4
ITEM: BOX BOUNDS pp pp pp
  -38.8496042078500        38.8496042078500     
  -38.8496042078500        38.8496042078500     
  -38.8496042078500        38.8496042078500     
ITEM: ATOMS id type x y z  
           1           1  -4.43944564045454        1.49606015618578     
  -3.88646697455725     
           2           1  -4.58107822304625        1.52936392273899     
  -2.89710805551841     
           3           1  -4.85068785430830        2.45496372386464     
  -3.46643458887703     
           4           1  -5.47189603903940        1.67605259702461     
  -3.55244533069393     
ITEM: TIMESTEP
 0
ITEM: NUMBER OF ATOMS 
           4
ITEM: BOX BOUNDS pp pp pp
  -38.8496042078500        38.8496042078500     
  -38.8496042078500        38.8496042078500     
  -38.8496042078500        38.8496042078500     
ITEM: ATOMS id type x y z  
           1           1  -4.47714337481067        2.49025122758678     
  -3.57828230502025     
           2           1  -5.22098809163440        1.82224040540440     
  -3.59965000729633     
           3           1  -5.52382356891809        2.86953130917822     
  -3.68395848653569     
           4           1  -5.08272204404954        2.52028107144846     
  -4.51067108242639     
ITEM: TIMESTEP
 0
ITEM: NUMBER OF ATOMS 
           4
ITEM: BOX BOUNDS pp pp pp
  -38.8496042078500        38.8496042078500     
  -38.8496042078500        38.8496042078500     
  -38.8496042078500        38.8496042078500     
ITEM: ATOMS id type x y z  
           1           1  -5.69465534796345        3.35403097826776     
  -4.06448663921192     
           2           1  -6.15460790819110        4.24034155591395     
  -4.01066097347085     
           3           1  -6.19531782306804        3.63431581911513     
  -3.06444617876036     
           4           1  -5.29483329618200        4.02162773326748     
  -3.26222660750513     
ITEM: TIMESTEP
 0
ITEM: NUMBER OF ATOMS 
           4
ITEM: BOX BOUNDS pp pp pp
  -38.8496042078500        38.8496042078500     
  -38.8496042078500        38.8496042078500     
  -38.8496042078500        38.8496042078500     
ITEM: ATOMS id type x y z  
           1           1  -6.94644239261801        4.64037055050165     
  -4.16240759548836     
           2           1  -6.32805179453874        5.40123809940689     
  -4.35906374522707     
           3           1  -6.98623148759079        5.44810844317402     
  -3.43630017947434     
           4           1  -6.29316576249478        4.74702809156443     
  -3.26853176384105     
ITEM: TIMESTEP
 0
ITEM: NUMBER OF ATOMS 
           4
ITEM: BOX BOUNDS pp pp pp
  -38.8496042078500        38.8496042078500     
  -38.8496042078500        38.8496042078500     
  -38.8496042078500        38.8496042078500     
ITEM: ATOMS id type x y z  
           1           1  -7.44477948035615        5.31982598479462     
  -5.47723577800709     
           2           1  -7.92617942906642        5.87292145205708     
  -4.79728026955419     
           3           1  -7.10846329422238        5.31273205155052     
  -4.36581511935592     
           4           1  -6.76188451998383        6.02087226154846     
  -4.98097412012838     
ITEM: TIMESTEP
 0
ITEM: NUMBER OF ATOMS 
           4
ITEM: BOX BOUNDS pp pp pp
  -38.8496042078500        38.8496042078500     
  -38.8496042078500        38.8496042078500     
  -38.8496042078500        38.8496042078500     
ITEM: ATOMS id type x y z  
           1           1  -7.41553994819016        5.57627262053935     
  -3.83910288377660     
           2           1  -7.21513133450461        5.04537674980815     
  -3.01570385414325     
           3           1  -7.32210174887525        4.46991500943486     
  -3.95386036861247     
           4           1  -6.46154425657116        4.96952542754116     
  -3.85471283934961     
